699
Atoms. Timestep: 11000
2 9.3571 4.04229 3.69113
1 8.61546 3.49722 3.30014
1 8.97186 4.79202 4.22918
2 -1.7915 -5.78039 0.790515
1 -1.06022 -5.24986 0.361833
1 -2.36807 -5.17265 1.33662
2 -9.30144 -1.03479 -8.06336
1 -8.94449 -0.412178 -8.75974
1 -8.58639 -1.22893 -7.39178
2 2.87681 -7.28212 9.08921
1 1.97541 -6.8775 8.93505
1 3.47407 -7.07005 8.3157
2 -8.13658 8.24047 -3.28518
1 -7.93458 8.7512 -4.12085
1 -8.11272 8.86096 -2.50133
2 -8.56073 -2.59503 -3.0667
1 -7.82123 -3.07257 -3.54115
1 -8.19745 -1.77636 -2.62194
2 -3.76485 -1.60636 0.42169
1 -4.76302 -1.56196 0.462644
1 -3.46517 -1.50156 -0.526578
2 7.17466 -7.20775 7.69928
1 7.43556 -6.32883 7.29999
1 6.96464 -7.08404 8.66912
2 -4.53181 0.416324 5.92677
1 -5.28471 1.03928 5.71447
1 -3.71969 0.946115 6.17125
2 1.81885 -4.49193 -4.24436
1 2.79188 -4.31713 -4.39489
1 1.28399 -4.03165 -4.95293
2 0.321107 -4.12757 -6.6634
1 0.21061 -3.38376 -7.32259
1 -0.549702 -4.60644 -6.55213
2 0.793151 -1.8181 -9.30496
1 1.15341 -1.55458 -8.4101
1 0.788662 -1.02197 9.33615
2 0.00387306 -8.62131 9.70098
1 -0.00383551 -7.75622 9.19943
1 0.33258 -9.35117 9.10159
2 -7.9742 0.316614 -4.67387
1 -8.42201 0.0888732 -3.80923
1 -8.58096 0.892292 -5.22198
2 -3.99987 0.737705 -9.08957
1 -3.89229 -0.191809 -9.44232
1 -4.96269 0.904084 -8.87673
2 -8.61254 8.2615 6.56609
1 -9.50981 8.64714 6.78097
1 -8.57941 7.30777 6.86492
2 0.883893 5.69154 5.89968
1 0.234344 6.39066 5.60081
1 0.679598 4.82793 5.43877
2 8.15003 -1.50881 -0.105287
1 8.5423 -2.38254 0.182331
1 8.02836 -1.50869 -1.09786
2 0.955631 4.12428 2.21716
1 0.262732 4.83386 2.08917
1 1.67857 4.23754 1.5356
2 6.29424 -7.34977 -8.92662
1 6.25465 -7.82237 -8.04624
1 5.45232 -7.5248 -9.43705
2 -1.09839 -0.407413 -5.65299
1 -1.95516 -0.899661 -5.49922
1 -0.834592 0.0720229 -4.816
2 -0.867723 6.45159 2.03506
1 -1.31372 6.60932 2.91609
1 -1.56197 6.36909 1.32007
2 -4.58442 3.48052 8.888
1 -4.49956 2.48453 8.91617
1 -3.67351 3.89304 8.89662
2 -8.28729 -3.53492 2.11904
1 -8.40999 -2.9103 2.89026
1 -9.16147 -3.66137 1.65019
2 2.48826 -5.60844 -0.0618555
1 2.19411 -4.70005 0.235316
1 3.24509 -5.51851 -0.709247
2 -1.99675 -5.37309 -6.37951
1 -1.82314 -6.35249 -6.48264
1 -2.32209 -5.18808 -5.45219
2 7.86251 3.33366 7.18594
1 7.87744 2.74421 6.37828
1 7.10649 3.98381 7.11015
2 -5.07305 -8.71252 7.95511
1 -5.43953 -9.01552 7.07541
1 -5.77505 -8.81118 8.66043
2 -5.07025 6.16214 -7.40508
1 -5.15002 6.94346 -6.78606
1 -4.1076 6.01263 -7.63077
2 -1.12626 -9.09606 4.67969
1 -1.19745 -8.58899 5.53865
1 -0.947171 -8.45869 3.93023
2 -4.01178 3.34122 -3.91565
1 -3.44527 3.51388 -4.72142
1 -3.76763 3.98675 -3.192
2 0.266238 5.73146 -3.04883
1 0.683404 4.90916 -3.43586
1 0.314961 6.47527 -3.71544
2 -0.919203 -3.72903 9.0088
1 -1.78134 -3.78959 9.51184
1 -0.358599 -2.99661 9.39518
2 8.09126 -4.96533 -5.87424
1 7.17588 -4.88617 -6.26897
1 8.07218 -4.65588 -4.92351
2 5.03534 -0.164289 -2.235
1 5.21682 0.808428 -2.37952
1 4.54655 -0.287443 -1.37133
2 0.420925 9.31901 -3.93178
1 0.533201 -8.9578 -4.15003
1 -0.000440406 9.22711 -3.02956
2 -6.40192 9.29882 5.82423
1 -7.28718 8.91745 6.09044
1 -6.43983 -9.65171 4.8697
2 -3.47279 -3.90403 -9.48622
1 -3.99307 -3.75195 -8.64588
1 -3.50472 -4.87407 9.51915
2 -4.67689 -2.20277 6.36667
1 -4.61638 -1.22041 6.18969
1 -5.45797 -2.58317 5.87149
2 5.77737 -4.66771 2.69389
1 5.32745 -3.92609 2.19634
1 5.86876 -5.46341 2.09513
2 1.86132 -3.02761 -1.97835
1 2.10181 -3.6429 -2.72907
1 2.68981 -2.7666 -1.48289
2 6.2538 -0.390071 5.1165
1 6.82679 -0.843307 4.43366
1 5.29514 -0.625241 4.95628
2 1.67227 -0.78571 -6.78173
1 0.717664 -0.749058 -6.48613
1 2.17595 -1.42725 -6.20317
2 -4.85493 3.85029 0.701624
1 -4.19127 4.57197 0.504828
1 -5.70883 4.04172 0.217671
2 -6.67713 -6.60996 3.98411
1 -7.36469 -6.51554 3.26414
1 -7.1034 -6.45221 4.87484
2 -6.50194 -4.78733 8.90077
1 -6.39164 -3.83954 8.60156
1 -7.46779 -4.96794 9.08659
2 7.24424 -2.24928 7.4163
1 8.19857 -2.13678 7.69309
1 7.06648 -1.69822 6.60099
2 -2.98008 0.580138 1.43538
1 -3.30637 -0.252042 0.987044
1 -3.76236 1.11952 1.74699
2 6.71577 1.42651 -5.08576
1 7.18147 0.782149 -5.69232
1 5.85822 1.72102 -5.50752
2 6.5053 -7.35021 -3.42335
1 7.06576 -7.56632 -2.62387
1 6.20366 -6.3982 -3.37146
2 3.9406 4.18251 0.396725
1 3.30835 3.69979 -0.209279
1 4.79628 4.36173 -0.0887567
2 5.54134 -7.31002 1.32007
1 5.94043 -6.70786 0.628598
1 4.60854 -7.552 1.053
2 9.53321 8.28983 0.288864
1 8.73355 8.34849 -0.308711
1 -9.55546 7.33535 0.542118
2 4.64434 3.49474 -8.87889
1 5.55507 3.35663 -8.48966
1 4.51747 4.46286 -9.09486
2 -3.65057 3.97148 3.33711
1 -4.25453 3.7618 2.56817
1 -3.49473 4.95837 3.37906
2 3.6904 5.82491 -2.41887
1 3.52502 5.83371 -3.40506
1 4.67298 5.75598 -2.24629
2 -3.89109 -7.5417 3.42849
1 -4.85559 -7.56692 3.69136
1 -3.38905 -6.95008 4.05931
2 4.10138 8.70198 8.97789
1 3.6429 9.34191 8.36122
1 3.44233 8.02533 9.3062
2 -6.82941 5.89803 -2.57655
1 -7.11714 5.02916 -2.97939
1 -7.23114 6.65419 -3.09311
2 6.543 8.78875 0.213304
1 5.69287 9.29898 0.0831101
1 6.44659 8.17477 0.996711
2 -5.48044 9.36915 -0.701394
1 -5.01843 -9.66622 0.160048
1 -4.89221 8.78525 -1.26089
2 0.849971 0.160999 8.21887
1 -0.0978701 0.422529 8.40107
1 1.44231 0.959734 8.32447
2 -1.6125 3.45774 -5.93864
1 -1.71216 2.72052 -6.6069
1 -1.80369 4.33494 -6.37908
2 -6.78238 -8.85291 -9.12859
1 -7.73518 -8.65778 -9.36119
1 -6.49373 -8.25767 -8.37868
2 3.59078 -4.23344 4.78958
1 4.3861 -4.59687 4.30441
1 3.34902 -3.34 4.41102
2 6.05802 8.88135 -8.18439
1 6.59302 8.12609 -8.56302
1 5.26069 9.04859 -8.7643
2 -7.70814 -6.45947 1.33125
1 -7.84999 -7.13761 0.610135
1 -7.74659 -5.5411 0.937399
2 -4.66874 -4.01469 -0.987843
1 -5.26453 -4.79813 -1.16467
1 -4.0444 -4.23331 -0.237901
2 -5.98637 -5.89455 -7.96758
1 -6.09854 -5.693 -8.94062
1 -5.70147 -5.06565 -7.48618
2 5.09713 0.893683 1.68432
1 4.53549 1.02955 0.868171
1 4.51646 0.926668 2.4978
2 -6.93493 3.08844 -3.92453
1 -6.98858 2.85147 -4.89456
1 -6.01345 3.41305 -3.71118
2 -8.32149 -4.39479 -1.05468
1 -7.56978 -5.02905 -1.2354
1 -8.31546 -3.66679 -1.74023
2 2.00439 7.81971 -5.70013
1 1.35133 8.24937 -5.07651
1 1.97554 8.28452 -6.58507
2 8.74988 -4.14391 0.644874
1 9.36367 -4.66525 0.052024
1 7.82525 -4.51918 0.579815
2 1.17127 8.16008 1.21084
1 1.4564 7.62557 0.415224
1 0.400738 7.70632 1.65848
2 -8.2956 1.78949 3.14774
1 -8.87817 1.26323 2.52832
1 -8.66787 2.71168 3.25247
2 6.89398 4.97929 1.12543
1 6.56444 5.82711 1.54089
1 6.81027 4.23108 1.7836
2 -6.35502 2.24076 5.47445
1 -6.25579 3.21904 5.65645
1 -7.1226 2.09398 4.85053
2 8.69133 5.82907 -3.17259
1 9.25509 6.62359 -2.94693
1 8.13854 6.03138 -3.98098
2 9.55172 5.30098 1.24454
1 -9.63254 4.79158 2.10284
1 8.59151 5.39593 0.981881
2 -3.72225 -1.2592 -5.33059
1 -4.36305 -0.518837 -5.12749
1 -3.7707 -1.9494 -4.60859
2 -8.62665 1.86222 -1.26042
1 -8.05848 2.68376 -1.21286
1 -9.36686 2.00645 -1.91714
2 8.22119 9.48903 7.25361
1 7.50632 8.82671 7.02933
1 7.80933 -8.85672 7.39334
2 -3.28352 -3.68879 1.90561
1 -3.40047 -2.90774 1.29219
1 -4.11851 -3.82106 2.43975
2 9.45468 4.5384 -6.12386
1 8.47207 4.69494 -6.2237
1 -9.29207 5.34837 -6.43122
2 -4.67781 7.22681 6.46261
1 -5.40016 7.86396 6.1938
1 -4.49379 7.32491 7.44062
2 -4.50161 -3.59241 -7.04483
1 -4.66063 -2.75247 -6.52597
1 -3.91013 -4.20274 -6.51791
2 6.60234 5.21473 -1.70423
1 7.37223 5.3687 -2.32356
1 6.94515 5.06816 -0.776333
2 0.57214 2.48014 4.33831
1 0.0507573 1.68433 4.03031
1 0.725188 3.09738 3.56657
2 -0.772672 0.218414 3.07023
1 -1.61647 0.35925 2.55239
1 -0.806151 -0.670736 3.52662
2 -1.37426 1.47443 -3.39504
1 -1.26963 1.66231 -2.41843
1 -1.71701 2.29243 -3.85698
2 -2.59494 -9.4986 -5.84585
1 -2.61198 9.3567 -6.76611
1 -1.70755 -9.06717 -5.68335
2 0.129994 -6.22189 7.95634
1 -0.23709 -5.37483 8.3407
1 -0.573955 -6.67064 7.40581
2 8.37596 -3.70317 -3.64462
1 7.70117 -2.96718 -3.69906
1 9.2548 -3.32844 -3.34929
2 0.086968 -4.59365 3.27936
1 0.522413 -4.83106 4.14771
1 -0.348319 -5.40619 2.89165
2 -8.04131 -8.9679 -0.524143
1 -8.59963 -9.65304 -0.0563121
1 -7.10386 -9.30491 -0.611389
2 -0.180024 2.92055 6.84762
1 0.280829 2.77367 5.97238
1 -0.959593 2.2987 6.92232
2 0.929203 5.44001 -8.07543
1 1.45151 5.66076 -8.89912
1 1.54074 5.04835 -7.38795
2 2.18767 2.33185 -2.25407
1 1.45956 2.67647 -2.84659
1 2.90916 1.92528 -2.81457
2 -7.09373 -9.28624 3.20994
1 -8.03604 -9.54074 2.99248
1 -7.00819 -8.28991 3.20596
2 7.0699 8.63266 4.55348
1 6.53487 9.46359 4.40084
1 6.91013 8.29934 5.48265
2 5.97464 -7.23588 -6.07973
1 6.11388 -7.30825 -5.09212
1 5.03128 -7.48195 -6.30225
2 5.75795 4.70648 6.22791
1 4.93883 4.70989 6.80153
1 5.8471 3.81714 5.77944
2 -4.02581 -6.25285 8.07561
1 -4.7679 -5.59486 8.2035
1 -4.40333 -7.17814 8.0394
2 4.2894 -7.50283 6.67311
1 5.21486 -7.15394 6.82076
1 4.00801 -7.31368 5.73235
2 0.413516 2.62764 -8.6562
1 0.34851 3.57323 -8.33741
1 -0.425869 2.13793 -8.42035
2 7.35719 0.255096 -7.78349
1 8.05249 -0.417551 -8.03666
1 6.72655 0.386615 -8.54834
2 -6.06902 -6.7218 -4.07827
1 -6.72794 -7.10898 -4.72318
1 -5.14202 -6.96957 -4.35983
2 -7.062 -2.09972 8.65567
1 -6.11789 -1.89727 8.91581
1 -7.67769 -1.82285 9.39341
2 -6.87794 -1.43656 -6.31871
1 -7.06843 -2.37506 -6.03073
1 -7.20275 -0.800656 -5.61862
2 7.25603 3.24622 -8.06355
1 7.03909 2.29036 -7.8654
1 8.08623 3.29132 -8.6192
2 -3.20486 -4.39738 -4.15894
1 -3.11483 -4.04233 -3.22844
1 -3.77884 -5.2162 -4.14918
2 4.28264 -0.748274 -4.94055
1 4.34608 -0.375875 -4.01465
1 4.09908 -0.00695927 -5.58612
2 -1.11644 7.51759 5.06487
1 -1.2023 8.40026 4.60279
1 -2.01001 7.06979 5.09685
2 3.18509 4.68793 7.49133
1 2.31067 5.0448 7.16266
1 3.06148 3.75029 7.81622
2 2.65327 2.27681 8.98828
1 3.45247 2.62257 9.47994
1 1.83149 2.43311 9.53624
2 2.96563 -7.34373 3.99533
1 2.68002 -7.55019 3.05949
1 2.30245 -6.72574 4.41756
2 -8.36573 -1.65437 4.05824
1 -7.56781 -1.31944 3.55709
1 -8.08581 -1.94948 4.97178
2 5.53502 -8.68921 3.69761
1 4.61182 -8.42283 3.97464
1 5.72706 -8.32653 2.7857
2 2.49972 6.68445 9.15545
1 2.9743 5.99126 8.613
1 2.01708 7.31252 8.54505
2 -1.72977 9.30282 7.44974
1 -1.99814 8.51857 6.89034
1 -2.418 -9.22281 7.36552
2 3.50943 -7.89426 -7.61778
1 3.31464 -7.63608 -8.56404
1 2.75951 -8.45299 -7.26361
2 -5.87836 -4.311 2.93229
1 -5.92334 -5.13921 3.4909
1 -6.80087 -4.05059 2.6474
2 3.15411 -3.14875 7.99878
1 2.379 -2.77637 8.50921
1 3.03142 -2.9629 7.02389
2 -2.68507 -0.765966 -2.16695
1 -3.58856 -0.951026 -2.55355
1 -2.3126 0.0678477 -2.57441
2 8.62179 9.3575 -7.79781
1 9.01633 8.44791 -7.66751
1 7.62396 9.29316 -7.78365
2 8.02796 -2.02633 3.74073
1 8.08028 -2.97073 4.06532
1 8.93291 -1.72731 3.43798
2 -8.86965 -4.04566 -6.75125
1 9.49754 -4.43291 -6.47316
1 -8.74303 -4.17828 -7.73429
2 -7.32437 4.22443 -0.209149
1 -8.18097 4.3429 0.293041
1 -7.18315 5.00627 -0.816427
2 1.53997 -5.80249 5.68439
1 1.00667 -5.76545 6.5295
1 2.40056 -5.30929 5.81143
2 -1.95434 -7.02605 6.55384
1 -2.64113 -6.73942 7.2218
1 -1.97303 -6.40597 5.76953
2 -8.84722 7.18264 -6.82959
1 -8.49502 7.88032 -6.20574
1 -8.27218 7.1454 -7.64687
2 3.92128 6.06449 -5.14739
1 4.79659 6.54434 -5.08762
1 3.18915 6.72573 -5.31093
2 -0.079663 -1.56341 -1.03765
1 0.661604 -2.07306 -1.47443
1 -0.948464 -2.02929 -1.20538
2 1.73955 6.97286 -1.01799
1 0.85092 6.8968 -1.47028
1 2.42647 6.47444 -1.54686
2 3.2743 1.55345 3.62922
1 2.29001 1.70016 3.72749
1 3.72897 2.43161 3.4805
2 -3.64395 6.67119 4.15727
1 -4.36107 6.9934 3.53928
1 -3.97725 6.70228 5.09958
2 2.52174 9.4001 6.74884
1 2.5783 8.81408 5.94051
1 2.95318 -8.96551 6.55296
2 -7.29845 -7.35322 -6.29858
1 -8.27801 -7.21297 -6.44273
1 -6.78357 -6.68289 -6.83297
2 3.34024 -9.05627 -4.28081
1 2.49762 -9.58615 -4.18487
1 4.05255 -9.6325 -4.68152
2 -3.41349 6.50324 0.77189
1 -3.51928 6.6869 -0.205392
1 -4.25515 6.75254 1.25091
2 -4.3553 7.88672 8.99977
1 -4.40545 8.85987 8.77512
1 -3.87649 7.76974 -9.37637
2 1.40141 -1.23567 6.02028
1 0.584867 -1.64974 5.61804
1 1.13894 -0.678302 6.80797
2 4.98164 2.54125 -2.82644
1 5.88921 2.54967 -3.24625
1 4.65876 3.4807 -2.71166
2 7.88099 9.12987 -4.64653
1 7.66966 -9.16378 -4.42756
1 8.78465 9.07816 -5.07165
2 -1.14683 -9.38137 -1.93443
1 -1.72452 -9.56853 -1.13992
1 -1.27343 -8.43213 -2.22239
2 -5.04759 -2.02825 -2.62055
1 -4.98369 -2.7831 -1.96777
1 -5.73561 -1.37379 -2.30702
2 0.0513476 -5.06696 -1.13703
1 0.228813 -4.12871 -1.43401
1 0.919667 -5.54728 -1.0133
2 4.62588 3.88331 3.06592
1 4.24343 3.92855 2.14305
1 4.64367 4.8002 3.46467
2 8.83062 6.98158 9.18973
1 9.31056 6.23511 8.72881
1 9.45566 7.75185 9.31624
2 -9.03194 -5.20098 -9.5285
1 9.37751 -4.65654 9.65945
1 -9.26364 -6.17312 9.6821
2 -7.81589 -3.29996 6.00528
1 -7.83815 -4.29164 5.87851
1 -7.65364 -3.09076 6.9696
2 7.8838 -5.11205 4.50415
1 7.13347 -4.82367 3.9093
1 8.16414 -6.04058 4.26072
2 2.91596 4.14346 -6.86943
1 3.35912 4.80163 -6.26082
1 3.5767 3.81728 -7.54547
2 8.83334 -7.57595 -6.03279
1 8.58471 -8.09321 -6.85171
1 8.29548 -6.73379 -5.99442
2 -6.07809 -0.338326 3.28869
1 -6.6389 0.488871 3.25347
1 -5.31914 -0.199643 3.92489
2 9.5164 9.48209 2.75939
1 8.85365 9.00748 3.33861
1 9.34638 9.2523 1.80112
2 -5.29596 8.00014 2.13606
1 -4.50548 8.56403 1.89697
1 -6.04873 8.58904 2.43023
2 -6.23453 -6.01011 -1.52266
1 -5.63899 -6.62576 -1.00661
1 -6.37465 -6.37559 -2.44288
2 1.73969 -3.33959 1.179
1 2.17561 -2.44303 1.25747
1 0.998198 -3.40925 1.84633
2 -6.96086 -4.07489 -4.94626
1 -6.69745 -4.97448 -4.5979
1 -7.64868 -4.18369 -5.66394
2 5.61753 -2.96482 9.46869
1 6.0918 -2.57286 8.68037
1 4.72419 -3.31087 9.18199
2 5.86478 -4.7686 -2.968
1 5.19988 -4.5013 -3.66547
1 6.76069 -4.38895 -3.19869
2 5.31178 -4.67002 -7.39777
1 5.31425 -5.61852 -7.71453
1 5.37005 -4.05567 -8.18465
2 1.19758 -0.569019 1.14802
1 0.579782 -0.185392 1.83442
1 0.667902 -0.876394 0.357474
2 -0.809693 -2.22492 4.49003
1 -0.512446 -3.10132 4.11112
1 -1.33467 -2.38413 5.32612
2 9.3415 3.49418 9.35134
1 8.90333 3.43206 8.4546
1 -9.01507 3.94104 9.25737
2 3.62665 1.55157 -6.25012
1 3.59311 2.54886 -6.3157
1 2.76678 1.16641 -6.5852
2 8.28373 -4.79639 7.13048
1 7.8316 -4.12921 7.72246
1 8.13479 -4.54772 6.17341
2 5.54533 -1.92601 0.975971
1 5.19354 -1.1266 1.463
1 6.361 -1.66842 0.457959
2 -2.07809 -3.17965 6.75596
1 -3.021 -2.85336 6.82272
1 -1.72002 -3.35411 7.67321
2 4.10983 -7.93062 -1.99289
1 5.01932 -7.6444 -2.29439
1 3.6232 -8.35388 -2.75711
2 2.6564 7.39128 4.93799
1 2.95371 7.03619 4.05169
1 1.978 6.77267 5.33434
2 -7.30151 -0.639847 -1.53456
1 -7.61072 0.298031 -1.37715
1 -7.30789 -1.14243 -0.670053
2 8.4306 6.0742 5.01474
1 8.2637 7.0364 4.79955
1 7.64839 5.70422 5.516
2 -9.52594 -7.16473 3.66351
1 -9.41903 -6.89747 2.70583
1 -9.59051 -8.16066 3.72641
2 -4.55266 7.10426 -1.85154
1 -3.79518 6.55997 -2.21204
1 -5.41438 6.62215 -2.00967
2 3.12533 0.857173 -0.23992
1 2.7276 1.54482 -0.847334
1 2.39805 0.280369 0.132047
2 3.6713 -0.852036 4.73471
1 2.83304 -1.1835 5.16767
1 3.49601 0.032669 4.30278
2 6.00393 7.20195 2.34565
1 6.49147 7.70859 3.05672
1 5.05519 7.51529 2.30415
2 -6.71266 -1.60869 0.922392
1 -6.40579 -1.11376 1.73533
1 -7.35873 -2.32307 1.19119
2 -8.78421 5.50459 7.0832
1 -9.37967 5.52552 6.28009
1 -8.09953 4.78431 6.9718
2 6.08161 -4.6484 -0.298773
1 6.11811 -4.47247 -1.2825
1 5.79585 -3.81718 0.178111
2 -2.67553 2.61912 5.446
1 -3.20833 3.22498 4.85519
1 -1.81043 2.39309 4.9982
2 5.37584 8.96046 -5.46164
1 5.28861 9.32559 -6.3885
1 6.31348 9.09023 -5.13915
2 4.22864 -3.35488 -4.88917
1 4.76216 -3.71669 -5.65366
1 4.25139 -2.35536 -4.91035
2 -4.294 -6.97202 0.111515
1 -4.63877 -6.92905 1.04922
1 -3.29516 -7.01811 0.12542
2 8.4299 -2.97187 -9.44794
1 7.47852 -2.68196 -9.34393
1 9.00313 -2.47392 -8.7972
2 4.52694 1.1241 6.99938
1 3.52928 1.11876 6.93116
1 4.91873 0.687076 6.18974
2 -1.81899 0.65669 8.3347
1 -2.22422 -0.111653 7.83929
1 -2.46496 0.98764 9.0226
2 7.24655 6.43635 -5.2117
1 6.97353 6.32092 -6.16676
1 7.45883 7.39829 -5.03964
2 -9.38992 -8.69085 9.37431
1 9.34998 -8.94617 8.55064
1 9.35193 -8.99376 -9.0633
2 7.39598 2.39649 2.15551
1 8.17289 1.85045 1.84206
1 6.54629 1.9924 1.81678
2 6.37399 1.1182 9.13588
1 7.04176 0.845079 8.44344
1 5.46174 1.14459 8.72709
2 -2.40313 -5.07948 4.72637
1 -2.26287 -4.49248 5.52372
1 -2.52877 -4.51196 3.91265
2 -9.52916 1.83504 -6.32583
1 9.4293 2.78752 -6.22595
1 9.1244 1.3754 -6.98725
2 -1.72002 5.51196 -7.87409
1 -0.725272 5.61431 -7.8715
1 -1.99373 4.93519 -8.64378
2 -0.515588 -7.71911 -6.47471
1 -0.340593 -7.56626 -7.44735
1 0.323103 -7.55517 -5.95536
2 -7.03224 2.9939 -6.56721
1 -7.98138 2.68235 -6.5218
1 -6.93317 3.65334 -7.3124
2 -5.00807 0.913989 -4.02432
1 -5.9928 0.819746 -3.87794
1 -4.75906 1.88225 -4.00281
2 -7.08505 9.10891 -5.62633
1 -7.12026 -9.21701 -6.01597
1 -6.13411 8.80319 -5.57892
2 -8.48409 -5.97614 5.91753
1 -9.07452 -6.33476 5.1945
1 -9.04682 -5.55849 6.6309
2 -6.46457 0.765401 -7.77728
1 -6.67598 1.60964 -7.28476
1 -6.64992 -0.0202038 -7.18696
2 6.24246 7.73484 7.02663
1 6.26824 6.74082 7.13266
1 5.59086 8.12279 7.67848
2 -1.79989 1.40675 -7.53024
1 -2.58413 1.09841 -8.06866
1 -1.65369 0.779748 -6.76506
2 0.864816 3.66862 -4.56508
1 1.5938 3.60404 -5.24656
1 -0.0175161 3.49783 -5.00362
2 -3.29143 -9.58028 1.98674
1 -3.53748 -8.79101 2.54933
1 -2.33288 9.42931 2.14548
2 -2.47757 7.94382 -8.1389
1 -1.89891 8.54589 -8.68905
1 -2.05007 7.04245 -8.06983
2 -7.12654 7.56997 -8.82329
1 -6.32509 7.0774 -9.1625
1 -7.03897 8.54131 -9.04427
2 8.60086 2.34974 -3.31062
1 8.97614 3.19426 -3.69264
1 7.81019 2.06196 -3.85102
2 -1.81935 4.4577 8.78765
1 -1.58387 5.13447 8.09013
1 -1.1869 3.68528 8.72957
2 -4.61872 7.8957 -4.8728
1 -4.57908 7.6957 -3.89381
1 -3.95974 8.61491 -5.09301
2 7.05225 5.90948 -8.02421
1 7.11566 4.91846 -8.14187
1 7.77584 6.35473 -8.55163
2 -2.21672 5.3707 -1.97013
1 -2.04029 4.75054 -1.20575
1 -1.37172 5.51326 -2.48555
2 -6.28732 4.66259 6.71348
1 -5.75764 4.47007 7.53954
1 -6.06135 5.57723 6.37825
2 -3.51377 -7.41487 -4.33671
1 -2.80844 -7.36991 -3.62926
1 -3.27152 -8.11855 -5.00465
2 -8.77114 0.800019 9.15448
1 -9.25747 1.66785 9.25619
1 -7.86905 0.968057 8.75699
2 -9.52188 0.757984 1.03874
1 9.14215 0.0249179 0.687079
1 -9.15122 1.28512 0.274053
2 -1.15585 -6.80747 -3.12788
1 -0.618792 -6.81446 -3.9714
1 -0.761105 -6.14923 -2.48687
2 7.04603 -1.69804 -4.15704
1 7.59618 -1.38137 -4.92974
1 6.18638 -1.18794 -4.12869
2 8.05327 -8.23811 -1.45044
1 7.61109 -9.09251 -1.17753
1 9.0387 -8.30853 -1.29565
2 1.23865 -7.25529 -4.66459
1 1.29935 -6.26125 -4.57402
1 2.14985 -7.65525 -4.56586
2 1.37606 9.16079 -7.88098
1 1.68573 8.39234 -8.44098
1 0.932508 -9.40518 -8.46452
2 -0.568699 -7.43244 2.75942
1 0.379464 -7.59735 2.48778
1 -1.08438 -7.08565 1.97596
2 3.28623 6.93041 2.42296
1 2.5129 7.5604 2.35185
1 3.29715 6.32491 1.62719
2 6.65916 2.29065 4.80937
1 6.58923 2.45502 3.82546
1 6.54082 1.3149 4.99354
2 0.655879 8.4922 8.29584
1 1.36776 8.73793 7.63793
1 -0.237079 8.76591 7.93847
2 -1.63734 3.56555 0.00616193
1 -2.03386 3.41369 0.911542
1 -1.12545 2.75347 -0.27401
2 1.87388 -7.75547 1.41635
1 2.06331 -8.56875 0.866181
1 1.92484 -6.94191 0.837112
2 -6.70224 4.68727 -8.80486
1 -6.0213 4.1913 -9.34369
1 -6.2432 5.36331 -8.22844
2 3.79709 9.16329 -0.222938
1 3.75667 -9.27412 -0.809612
1 3.24657 8.43183 -0.625299
2 -0.781502 1.1081 -0.535075
1 -1.75714 1.03552 -0.328028
1 -0.469909 0.264497 -0.972388
2 -4.30475 -1.61207 8.91968
1 -3.98788 -2.47468 9.31401
1 -4.49549 -1.74061 7.9465
699
Atoms. Timestep: 11250
2 9.0393 3.97851 4.06253
1 8.1418 3.57524 4.24106
1 9.22244 4.69529 4.73535
2 -0.988678 -5.99238 0.232409
1 -0.325076 -5.60805 -0.409401
1 -1.70607 -5.3195 0.412937
2 -9.29933 -1.31778 9.4142
1 9.24443 -1.09736 8.73746
1 -8.41677 -0.962342 9.10639
2 3.20873 -6.20555 8.8643
1 3.55073 -5.27569 8.99994
1 3.3415 -6.47365 7.91009
2 -8.06215 6.68041 -3.13087
1 -8.01988 7.36561 -3.85799
1 -7.86119 7.11382 -2.25236
2 -8.37909 -2.76803 -3.14891
1 -7.77639 -3.09808 -3.87542
1 -7.97375 -1.96031 -2.72079
2 -3.79813 -1.60643 0.929571
1 -4.75119 -1.4457 1.18619
1 -3.67577 -1.40349 -0.0419449
2 6.70615 -6.61182 7.58558
1 6.92022 -5.75395 7.11844
1 6.23862 -6.41448 8.44725
2 -5.29196 0.897176 4.80422
1 -6.13275 0.973873 5.34012
1 -4.54569 1.35482 5.28759
2 3.45767 -5.46856 -6.95474
1 3.85221 -5.05223 -6.13558
1 2.75411 -4.86483 -7.32961
2 1.49559 -3.6395 -7.91554
1 1.28516 -3.5841 -8.89158
1 0.644057 -3.67712 -7.39259
2 2.37457 -0.957188 9.33747
1 2.77763 -0.618782 -9.05844
1 1.76062 -0.263676 8.96049
2 -1.13742 -6.9125 9.57096
1 -0.645879 -6.53692 8.78525
1 -1.88023 -7.49988 9.24969
2 -6.56816 1.80331 -4.44002
1 -7.46044 2.096 -4.09624
1 -6.116 2.57279 -4.89108
2 -4.02945 0.438716 9.5427
1 -4.14025 -0.422941 9.04745
1 -4.75781 0.528794 -9.02427
2 -8.97324 8.55761 7.20459
1 -9.60368 9.29735 7.43984
1 -8.50518 8.24328 8.0305
2 0.800795 6.12073 6.14876
1 0.281757 6.89271 5.78183
1 0.465251 5.27054 5.74307
2 9.00489 -1.39982 -0.851541
1 9.54849 -2.22818 -0.716238
1 8.95426 -1.19016 -1.828
2 0.113846 3.89098 1.67461
1 -0.0137823 4.81607 2.0323
1 -0.493117 3.7493 0.892611
2 5.6034 -6.35187 -9.1061
1 5.81621 -7.21092 -8.64055
1 4.6373 -6.13087 -8.97264
2 -0.264041 -0.490072 -5.37085
1 -1.18835 -0.369175 -5.73284
1 -0.17133 0.0207705 -4.51619
2 -0.415402 6.77801 2.26022
1 -0.430072 7.16884 3.18057
1 -1.35248 6.6077 1.95545
2 -4.52893 3.55518 9.11073
1 -4.33874 2.90745 -9.39774
1 -3.66863 3.93468 8.77035
2 -8.71293 -2.79645 1.35457
1 -8.89421 -2.49996 2.29224
1 -9.30794 -3.56753 1.12787
2 3.35444 -4.9292 0.402825
1 2.99488 -4.44539 1.20073
1 4.19336 -4.48232 0.0921616
2 -0.884282 -3.71758 -6.40167
1 -1.09765 -4.67124 -6.61382
1 -1.67677 -3.28681 -5.96993
2 7.66026 2.69616 7.87223
1 6.93375 2.98373 7.24814
1 8.50069 3.19359 7.65716
2 -4.92019 -8.68611 6.76588
1 -4.97561 -9.37104 6.03938
1 -5.56461 -8.91965 7.49402
2 -4.61235 7.02473 -6.50153
1 -4.55937 7.83726 -5.92102
1 -4.34448 7.26385 -7.43484
2 -1.13531 -9.1085 4.42698
1 -1.20855 -8.23624 4.91052
1 -0.729699 -8.95688 3.5256
2 -2.27552 3.35878 -3.86118
1 -2.58198 3.53442 -4.79672
1 -2.42661 4.17416 -3.30232
2 0.241926 5.80463 -2.87013
1 0.821592 5.02376 -3.10303
1 -0.0286488 6.28026 -3.70713
2 -0.10911 -3.40289 8.11417
1 -0.870851 -3.0879 8.68033
1 0.338115 -2.61583 7.68928
2 8.56232 -4.85685 -6.14627
1 7.66001 -4.72275 -6.55596
1 8.64493 -4.28757 -5.32829
2 4.4771 -0.539531 -2.13811
1 4.94132 0.338054 -2.2579
1 4.15849 -0.621901 -1.19381
2 -0.890105 -9.60163 -2.6493
1 -1.03699 -8.61758 -2.7496
1 -1.53025 9.2792 -1.9735
2 -6.74192 8.65382 5.47396
1 -7.60141 8.54162 5.97265
1 -6.93486 8.96192 4.54237
2 -2.57992 -3.52905 9.54585
1 -3.46642 -3.50372 -9.23832
1 -2.03433 -4.2826 -9.33364
2 -5.51437 -1.91392 4.66595
1 -5.36836 -0.927327 4.73881
1 -6.44108 -2.13695 4.96837
2 4.32368 -4.56686 3.32201
1 3.50285 -4.17237 2.90895
1 4.07416 -5.37947 3.84871
2 0.526013 -3.21683 -3.1446
1 -0.0571985 -3.21726 -3.95692
1 1.40712 -2.79952 -3.3671
2 6.09922 0.332506 5.29625
1 6.43414 -0.431114 4.74424
1 5.13479 0.186632 5.51671
2 1.9986 -1.10607 -6.89922
1 1.11967 -0.817452 -6.5195
1 1.88411 -1.97422 -7.38214
2 -3.99606 3.9195 1.54974
1 -3.44858 4.75152 1.4602
1 -4.96169 4.16383 1.63837
2 -7.3956 -6.5737 2.60113
1 -7.86647 -6.67257 1.72449
1 -8.01377 -6.15458 3.26612
2 -6.05927 -5.4901 8.29697
1 -6.34578 -4.5376 8.40017
1 -6.85881 -6.08738 8.36022
2 7.61819 -0.49261 8.17657
1 7.62226 0.230077 8.86774
1 7.61317 -0.0818364 7.26485
2 -3.01285 1.08276 1.42926
1 -3.4992 0.211551 1.49597
1 -3.62995 1.82897 1.67897
2 5.92197 0.9444 -5.02091
1 6.61731 0.322783 -5.3816
1 5.12586 0.941189 -5.62604
2 7.43813 -8.09225 -2.39051
1 8.28811 -8.23128 -1.88237
1 7.31075 -7.1161 -2.5663
2 3.12681 3.9843 1.42778
1 2.16223 4.14084 1.64009
1 3.20023 3.4469 0.587654
2 6.303 -7.00102 0.656518
1 6.4405 -6.11361 0.216516
1 5.61258 -7.51969 0.152235
2 -9.55458 7.11055 1.79504
1 8.91494 7.39835 1.23477
1 -9.46871 6.11488 1.75944
2 3.54261 4.65633 -8.17757
1 4.50618 4.43571 -8.02635
1 3.46247 5.60278 -8.49032
2 -2.90565 4.02872 3.93825
1 -3.14478 4.02256 2.96728
1 -3.23599 4.87435 4.35752
2 4.12795 5.8781 -1.65673
1 4.00191 4.93834 -1.33897
1 5.10043 6.04868 -1.81545
2 -4.85585 -7.23168 1.77659
1 -5.74805 -7.19708 2.22692
1 -4.24415 -6.56146 2.19686
2 3.09974 7.89251 -8.89774
1 3.18956 8.58602 9.63365
1 2.3086 8.10538 -8.32434
2 -6.26109 4.50531 -2.25166
1 -5.5565 4.37556 -2.94931
1 -7.03724 4.99505 -2.64884
2 7.10719 7.96417 0.3533
1 6.2817 8.29179 -0.106308
1 6.85022 7.41206 1.14649
2 -5.54264 -9.42363 -1.41896
1 -4.76901 -8.79085 -1.452
1 -5.2109 8.88488 -1.52215
2 0.334478 0.843304 7.78003
1 -0.590398 1.22047 7.73155
1 0.923747 1.47008 8.28984
2 -3.22202 3.85852 -6.52952
1 -3.13353 2.92525 -6.87762
1 -2.98742 4.50776 -7.25302
2 -6.50707 -9.05545 9.30552
1 -7.49723 -8.9227 9.26107
1 -6.10986 -8.39141 -9.30723
2 4.73964 -2.96809 5.79431
1 4.47726 -3.32867 4.89924
1 5.55833 -2.40189 5.6986
2 5.04808 7.50556 -7.20356
1 5.81288 7.31617 -7.81937
1 4.21419 7.63926 -7.73905
2 -8.9082 -7.08387 0.567556
1 -9.00554 -7.81826 -0.104158
1 -9.62019 -6.39799 0.417076
2 -5.9641 -5.51123 -1.64795
1 -5.77752 -6.09567 -2.43765
1 -6.02239 -6.07384 -0.823276
2 -5.32248 -7.16234 -8.61085
1 -5.50082 -6.29143 -9.06879
1 -4.43251 -7.5149 -8.90009
2 5.24758 0.959151 2.22649
1 4.48768 0.766961 1.6055
1 4.89293 1.34751 3.07702
2 -5.12684 4.95083 -4.87155
1 -4.57928 4.50457 -5.57939
1 -5.21726 5.92381 -5.08403
2 -9.43006 -5.73073 -2.27577
1 -8.96653 -6.6136 -2.35111
1 -8.81177 -5.0032 -2.57311
2 0.0630135 7.92309 -4.63757
1 -0.291427 8.58252 -3.9746
1 -0.011117 8.30426 -5.5591
2 8.88217 -4.62654 0.0439913
1 8.99861 -4.92018 -0.904809
1 7.94015 -4.3223 0.185528
2 0.339356 8.88021 0.376723
1 0.875485 8.45022 -0.349693
1 0.66739 8.56184 1.26612
2 -9.35458 1.25602 3.98792
1 9.21708 0.789701 3.41563
1 -9.46786 2.24547 3.89763
2 6.38374 4.69803 1.07192
1 6.34371 5.44826 1.73189
1 6.84521 3.91369 1.48648
2 -7.46678 0.978463 6.35337
1 -7.20872 1.87949 6.70204
1 -8.36697 1.03353 5.92138
2 9.10984 5.16559 -2.77328
1 -9.26111 5.62789 -2.91531
1 8.36499 5.76441 -3.06759
2 -9.41954 4.44591 1.58376
1 9.50271 4.18211 2.49231
1 -9.52261 3.67428 0.956094
2 -3.45719 0.0553851 -5.41982
1 -3.21825 0.398203 -4.51132
1 -4.3464 -0.400462 -5.38082
2 -7.40502 1.6988 -1.30717
1 -6.92224 2.45462 -0.864834
1 -7.902 2.04174 -2.10428
2 8.26436 -9.02276 7.72838
1 7.61208 9.46572 7.70944
1 7.78432 -8.16505 7.54421
2 -3.32423 -4.28006 0.633632
1 -3.46976 -3.29685 0.523521
1 -4.16852 -4.76867 0.413536
2 9.2553 5.22232 -5.89956
1 9.23177 5.81017 -5.09093
1 9.39174 5.78362 -6.71584
2 -5.74629 6.36378 6.57091
1 -6.22534 7.10038 6.09348
1 -5.36249 6.71454 7.42511
2 -4.49042 -3.74711 -7.78254
1 -5.48645 -3.6739 -7.73201
1 -4.11838 -3.87306 -6.86291
2 7.19787 3.72631 -1.46696
1 7.98183 4.28432 -1.73904
1 6.91083 3.98233 -0.543887
2 0.567692 1.74086 3.02672
1 -0.250928 1.17126 3.10037
1 0.467397 2.37057 2.25639
2 -1.25725 -0.10808 3.46714
1 -2.11154 -0.0894234 2.94768
1 -1.14892 -1.00375 3.89846
2 -0.42695 1.46584 -3.31099
1 -0.751993 1.22981 -2.39522
1 -1.13631 1.97864 -3.79457
2 -2.61676 -7.92942 -6.22038
1 -2.81175 -8.60318 -6.93314
1 -1.88253 -7.32342 -6.52646
2 -0.258734 -5.79718 7.22581
1 -0.256938 -4.82456 7.4582
1 -0.798829 -5.94073 6.39654
2 8.25713 -3.12865 -3.88874
1 7.75967 -2.28862 -3.6722
1 9.18636 -3.06916 -3.52406
2 0.264804 -4.63441 3.68606
1 0.677286 -4.88087 4.56306
1 -0.127027 -5.45037 3.26099
2 -7.71804 8.0506 -0.820137
1 -7.94621 7.70992 0.0919349
1 -6.90077 8.62438 -0.766808
2 -0.11241 4.0154 4.8757
1 0.32842 3.50241 4.13915
1 -1.08328 4.13166 4.66619
2 -0.0491075 4.98008 -7.37234
1 0.236452 5.28283 -8.28163
1 0.708455 5.09466 -6.72972
2 3.35614 2.97818 -1.00235
1 2.77124 3.07443 -1.80773
1 4.29222 2.77873 -1.29215
2 -7.52965 -9.43189 2.98227
1 -8.4691 9.5382 3.18525
1 -7.53021 -8.51312 2.58748
2 6.86737 8.85253 4.86206
1 6.52139 -9.52774 4.50091
1 6.72908 8.82527 5.85207
2 5.8449 -8.76132 -7.69084
1 5.8744 -8.26758 -6.82174
1 5.47203 -9.6771 -7.54143
2 5.42008 5.63024 7.07294
1 4.44036 5.64548 7.27275
1 5.69847 4.69823 6.84087
2 -4.39325 -5.94689 6.46496
1 -5.01709 -5.66655 7.19451
1 -4.60877 -6.88182 6.18308
2 4.27117 -8.02686 6.92107
1 5.18132 -7.67075 7.1328
1 4.11494 -7.97705 5.93461
2 0.103502 2.11212 -7.7297
1 -0.113156 3.05416 -7.47353
1 -0.740684 1.57877 -7.78345
2 8.018 0.0316511 -7.27302
1 8.77552 -0.429139 -7.73545
1 7.36265 0.360199 -7.95316
2 -5.40097 -6.71348 -4.03335
1 -5.80538 -6.88442 -4.93182
1 -4.41978 -6.54951 -4.13521
2 -6.52337 -2.84409 8.31328
1 -5.55064 -2.61808 8.26123
1 -7.02075 -2.08249 8.72869
2 -6.07249 -0.810427 -5.45262
1 -6.68727 -1.59668 -5.39046
1 -6.21465 -0.212956 -4.66343
2 6.58734 4.42102 -7.2542
1 6.59462 3.46406 -6.96404
1 7.40516 4.88057 -6.90782
2 -3.49965 -3.93846 -4.85862
1 -4.03916 -3.58448 -4.09466
1 -3.17296 -4.85756 -4.63834
2 2.96809 -2.11771 -4.0658
1 3.48695 -1.54551 -3.43068
1 2.76337 -1.59561 -4.89374
2 -1.14771 7.46063 4.9574
1 -1.35697 8.43844 4.94774
1 -1.91876 6.95861 5.34914
2 2.47871 5.04983 7.8457
1 1.7675 5.53983 7.34163
1 2.30374 4.06642 7.79784
2 1.91831 2.41019 9.50804
1 2.69705 2.9292 -9.38577
1 1.22032 2.33195 -9.02636
2 3.32006 -6.94908 4.21527
1 3.03379 -7.27261 3.3134
1 2.57868 -6.42249 4.63127
2 -8.97656 -1.47582 3.82966
1 -8.8365 -0.486292 3.86456
1 -8.5974 -1.89542 4.65438
2 5.96582 -8.00757 3.56901
1 5.00623 -7.80422 3.76354
1 6.15647 -7.82442 2.60458
2 0.610939 6.08734 9.48137
1 1.48431 5.87183 9.04459
1 0.338723 7.01894 9.24051
2 -3.42199 -8.29423 9.21776
1 -3.79345 -8.34502 8.2907
1 -3.27049 -9.21884 9.56725
2 2.0178 -8.20564 -9.19045
1 2.6144 -7.42933 -9.39391
1 1.09477 -8.01291 -9.52344
2 -6.01614 -4.32775 1.33384
1 -6.35816 -5.15669 1.77642
1 -6.78729 -3.74836 1.06996
2 4.13619 -3.12494 8.59379
1 3.58998 -2.33166 8.86282
1 4.33706 -3.075 7.61544
2 -3.17932 -1.56986 -2.27955
1 -3.941 -2.07775 -2.68191
1 -3.212 -0.619482 -2.58892
2 8.58016 -9.53793 -6.83464
1 9.26946 9.13981 -6.38553
1 7.9892 9.13205 -7.39919
2 7.59338 -1.73515 4.18392
1 7.25529 -2.62901 3.88943
1 8.58344 -1.69256 4.04984
2 -8.21067 -4.8864 -7.23988
1 -9.17683 -4.91662 -6.98369
1 -8.08562 -5.3391 -8.12273
2 -6.76438 4.0303 0.421798
1 -7.67424 4.32371 0.71517
1 -6.56749 4.40905 -0.482518
2 1.75439 -5.05303 5.71652
1 1.01963 -5.27102 6.35887