LAMMPS (30 Mar 2018)
# 3d LJ - liquid Argon
# hgh.comphys@gmail.com

#######################

units		real
dimension	3
boundary	p p p

#######################

atom_style		atomic
neigh_modify	delay 1

# create geometry
variable 		l equal 5.25
lattice			fcc 20
Lattice spacing in x,y,z = 20 20 20
region			box block 0 $l 0 $l 0 $l
region			box block 0 5.25 0 $l 0 $l
region			box block 0 5.25 0 5.25 0 $l
region			box block 0 5.25 0 5.25 0 5.25
create_box		1 box
Created orthogonal box = (0 0 0) to (105 105 105)
  1 by 1 by 1 MPI processor grid
create_atoms	1 box
Created 666 atoms
  Time spent = 0.000222206 secs
mass			1 39.95

#######################

# LJ potentials
pair_style	lj/cut 8.5
pair_coeff	* * 0.238 3.405

#######################

variable dens equal mass(all)/vol*1.66054 #gr/cm3
variable E    equal etotal/count(all)
variable P    equal pe/count(all)
variable K    equal v_E-v_P

#######################

timestep		1
thermo			1000

thermo_style 	custom step temp etotal v_dens v_E v_K v_P
#dump			1 all atom 1000 dump.lammpstrj

#######################

variable 	T equal 50
#fix		2 all temp/rescale 200 85.0 300.0 100 1.0

velocity 	all create 1.0 1234 mom yes rot yes
fix 		rlx all nvt temp $T $T 10
fix 		rlx all nvt temp 50 $T 10
fix 		rlx all nvt temp 50 50 10
run 		10000
Neighbor list info ...
  update every 1 steps, delay 1 steps, check yes
  max neighbors/atom: 2000, page size: 100000
  master list distance cutoff = 10.5
  ghost atom cutoff = 10.5
  binsize = 5.25, bins = 20 20 20
  1 neighbor lists, perpetual/occasional/extra = 1 0 0
  (1) pair lj/cut, perpetual
      attributes: half, newton on
      pair build: half/bin/atomonly/newton
      stencil: half/bin/3d/newton
      bin: standard
Per MPI rank memory allocation (min/avg/max) = 3.161 | 3.161 | 3.161 Mbytes
Step Temp TotEng v_dens v_E v_K v_P 
       0            1   -14.083351  0.038165632 -0.021146172 0.0029763344 -0.024122506 
    1000    46.526908    65.932951  0.038165632  0.098998425   0.13847964 -0.039481212 
    2000     50.68053    85.817303  0.038165632   0.12885481    0.1508422 -0.021987393 
    3000    49.821121    84.156772  0.038165632   0.12636152   0.14828431 -0.021922795 
    4000    49.771717    77.264667  0.038165632   0.11601301   0.14813727 -0.032124258 
    5000    51.105036    77.990586  0.038165632   0.11710298   0.15210567 -0.035002693 
    6000    52.359351    77.572837  0.038165632   0.11647573   0.15583894 -0.039363206 
    7000    48.752934    68.100509  0.038165632   0.10225302   0.14510503 -0.042852015 
    8000    51.060205    68.434396  0.038165632   0.10275435   0.15197224 -0.049217893 
    9000    48.828191    63.942306  0.038165632  0.096009468   0.14532902 -0.049319555 
   10000    51.853246    68.793199  0.038165632   0.10329309    0.1543326 -0.051039506 
Loop time of 0.387095 on 1 procs for 10000 steps with 666 atoms

Performance: 2232.009 ns/day, 0.011 hours/ns, 25833.438 timesteps/s
106.0% CPU use with 1 MPI tasks x no OpenMP threads

MPI task timing breakdown:
Section |  min time  |  avg time  |  max time  |%varavg| %total
---------------------------------------------------------------
Pair    | 0.12307    | 0.12307    | 0.12307    |   0.0 | 31.79
Neigh   | 0.0072813  | 0.0072813  | 0.0072813  |   0.0 |  1.88
Comm    | 0.035625   | 0.035625   | 0.035625   |   0.0 |  9.20
Output  | 0.00047207 | 0.00047207 | 0.00047207 |   0.0 |  0.12
Modify  | 0.18862    | 0.18862    | 0.18862    |   0.0 | 48.73
Other   |            | 0.03203    |            |       |  8.28

Nlocal:    666 ave 666 max 666 min
Histogram: 1 0 0 0 0 0 0 0 0 0
Nghost:    566 ave 566 max 566 min
Histogram: 1 0 0 0 0 0 0 0 0 0
Neighs:    1011 ave 1011 max 1011 min
Histogram: 1 0 0 0 0 0 0 0 0 0

Total # of neighbors = 1011
Ave neighs/atom = 1.51802
Neighbor list builds = 36
Dangerous builds = 0
unfix 		rlx

# ---

fix			rlx all npt temp $T $T 10 iso 1 1 100
fix			rlx all npt temp 50 $T 10 iso 1 1 100
fix			rlx all npt temp 50 50 10 iso 1 1 100
run			10000
Per MPI rank memory allocation (min/avg/max) = 3.161 | 3.161 | 3.161 Mbytes
Step Temp TotEng v_dens v_E v_K v_P 
   10000    51.853246    68.793199  0.038165632   0.10329309    0.1543326 -0.051039506 
   11000    51.962049    90.354875  0.010527611   0.13566798   0.15465643  -0.01898845 
   12000    48.954848    82.966409  0.011047753   0.12457419     0.145706  -0.02113181 
   13000    49.423907    86.589965  0.011172874   0.13001496   0.14710207  -0.01708711 
   14000    49.466197     88.61908  0.010938118   0.13306168   0.14722794 -0.014166261 
   15000    50.714224    92.862975  0.010125699    0.1394339   0.15094249 -0.011508592 
   16000    51.629683    93.551234  0.010155659   0.14046732    0.1536672 -0.013199881 
   17000     51.41471    92.450089  0.010572274   0.13881395   0.15302737 -0.014213421 
   18000    51.401888    93.566865   0.01025536   0.14049079   0.15298921 -0.012498417 
   19000    51.463273    94.036372  0.010275692   0.14119575   0.15317191 -0.011976153 
   20000    48.646092    87.442242  0.010239326   0.13129466   0.14478703 -0.013492377 
Loop time of 0.608677 on 1 procs for 10000 steps with 666 atoms

Performance: 1419.472 ns/day, 0.017 hours/ns, 16429.077 timesteps/s
99.7% CPU use with 1 MPI tasks x no OpenMP threads

MPI task timing breakdown:
Section |  min time  |  avg time  |  max time  |%varavg| %total
---------------------------------------------------------------
Pair    | 0.11317    | 0.11317    | 0.11317    |   0.0 | 18.59
Neigh   | 0.080184   | 0.080184   | 0.080184   |   0.0 | 13.17
Comm    | 0.028425   | 0.028425   | 0.028425   |   0.0 |  4.67
Output  | 0.00049496 | 0.00049496 | 0.00049496 |   0.0 |  0.08
Modify  | 0.35109    | 0.35109    | 0.35109    |   0.0 | 57.68
Other   |            | 0.03531    |            |       |  5.80

Nlocal:    666 ave 666 max 666 min
Histogram: 1 0 0 0 0 0 0 0 0 0
Nghost:    320 ave 320 max 320 min
Histogram: 1 0 0 0 0 0 0 0 0 0
Neighs:    240 ave 240 max 240 min
Histogram: 1 0 0 0 0 0 0 0 0 0

Total # of neighbors = 240
Ave neighs/atom = 0.36036
Neighbor list builds = 474
Dangerous builds = 0
unfix		rlx

# ---

timestep    10

fix 		rlx all nve #temp $T $T 10
run 		5000000
Per MPI rank memory allocation (min/avg/max) = 3.287 | 3.287 | 3.287 Mbytes
Step Temp TotEng v_dens v_E v_K v_P 
   20000    48.646092    87.442242  0.010239326   0.13129466   0.14478703 -0.013492377 
   21000    49.417727    87.274307  0.010239326    0.1310425   0.14708368 -0.016041175 
   22000    50.159025    87.297728  0.010239326   0.13107767   0.14929003  -0.01821236 
   23000    49.698587    87.380669  0.010239326   0.13120221   0.14791961 -0.016717407 
   24000    49.660648    87.328686  0.010239326   0.13112415   0.14780669  -0.01668254 
   25000    50.422531    87.238444  0.010239326   0.13098866   0.15007431 -0.019085656 
   26000    49.940582    87.274715  0.010239326   0.13104312   0.14863987 -0.017596754 
   27000     50.72835    87.207431  0.010239326   0.13094209   0.15098453 -0.020042442 
   28000      50.2112    87.235547  0.010239326   0.13098431   0.14944532 -0.018461016 
   29000    52.006668    87.153353  0.010239326   0.13086089   0.15478923 -0.023928344 
   30000    52.951702    87.040534  0.010239326   0.13069149   0.15760197 -0.026910476 
   31000    52.733379    87.062193  0.010239326   0.13072401   0.15695217 -0.026228153 
   32000    52.655285      87.0941  0.010239326   0.13077192   0.15671973  -0.02594781 
   33000    51.984237    87.090744  0.010239326   0.13076688   0.15472247 -0.023955588 
   34000     52.02556    87.180398  0.010239326    0.1309015   0.15484546 -0.023943963 
   35000     52.83427    87.094426  0.010239326   0.13077241   0.15725245 -0.026480042 
   36000    53.112761    87.153043  0.010239326   0.13086042   0.15808133 -0.027220909 
   37000    53.074953    87.128885  0.010239326   0.13082415   0.15796881 -0.027144654 
   38000    53.898554    87.070283  0.010239326   0.13073616   0.16042012 -0.029683957 
   39000    53.484236    87.081607  0.010239326   0.13075316   0.15918697 -0.028433806 
   40000    53.189525    87.162421  0.010239326   0.13087451   0.15830981 -0.027435304 
   41000    53.843115     87.10134  0.010239326   0.13078279   0.16025511 -0.029472322 
   42000    53.138154     87.14763  0.010239326    0.1308523   0.15815691 -0.027304617 
   43000    52.941226     87.15898  0.010239326   0.13086934   0.15757079 -0.026701453 
   44000    53.406363    87.041061  0.010239326   0.13069228   0.15895519 -0.028262909 
   45000    53.145799    87.095767  0.010239326   0.13077442   0.15817967 -0.027405243 
   46000    54.081124    87.037365  0.010239326   0.13068673   0.16096351 -0.030276773 
   47000    53.661429    87.039242  0.010239326   0.13068955   0.15971435 -0.029024802 
   48000    52.948532    87.105212  0.010239326   0.13078861   0.15759253 -0.026803927 
   49000    54.043671    87.065642  0.010239326   0.13072919   0.16085204 -0.030122845 
   50000    53.375906     87.05056  0.010239326   0.13070655   0.15886454 -0.028157996 
   51000    54.112672    87.065165  0.010239326   0.13072848    0.1610574 -0.030328928 
   52000    53.338642     87.08473  0.010239326   0.13075785   0.15875363 -0.027995779 
   53000    54.150706    87.053664  0.010239326   0.13071121   0.16117061   -0.0304594 
   54000    54.055564    87.069994  0.010239326   0.13073573   0.16088743 -0.030151705 
   55000    53.769005    87.010592  0.010239326   0.13064653   0.16003454 -0.029388002 
   56000     53.91085    86.979312  0.010239326   0.13059957   0.16045672 -0.029857149 
   57000    54.087525    87.050104  0.010239326   0.13070586   0.16098256 -0.030276696 
   58000     55.33251    87.015496  0.010239326    0.1306539   0.16468805 -0.034034153 
   59000    54.623173    86.949045  0.010239326   0.13055412   0.16257683 -0.032022703 
   60000    54.933304    86.925188  0.010239326    0.1305183   0.16349988 -0.032981579 
   61000    55.245211    87.004224  0.010239326   0.13063697   0.16442822 -0.033791246 
   62000    55.016327    87.044168  0.010239326   0.13069695   0.16374698 -0.033050034 
   63000    55.740323     86.93694  0.010239326   0.13053595   0.16590184 -0.035365893 
   64000    55.304478    86.999079  0.010239326   0.13062925   0.16460462 -0.033975369 
   65000    55.300421    87.007189  0.010239326   0.13064142   0.16459254 -0.033951118 
   66000    53.886936    87.090247  0.010239326   0.13076614   0.16038554 -0.029619404 
   67000    55.419847    86.975428  0.010239326   0.13059374   0.16494799 -0.034354258 
   68000    54.906701    86.983403  0.010239326   0.13060571    0.1634207 -0.032814991 
   69000    54.929134    86.967446  0.010239326   0.13058175   0.16348747 -0.032905718 
   70000    53.913537    86.965442  0.010239326   0.13057874   0.16046471 -0.029885971 
   71000    54.715349     86.98909  0.010239326   0.13061425   0.16285117 -0.032236924 
   72000    54.549948    87.062165  0.010239326   0.13072397   0.16235888 -0.031634913 
   73000    54.029675    87.083372  0.010239326   0.13075581   0.16081038 -0.030054563 
   74000    54.769043    86.960999  0.010239326   0.13057207   0.16301098 -0.032438915 
   75000    54.560431    87.047234  0.010239326   0.13070155   0.16239009 -0.031688535 
   76000    53.774448    86.973751  0.010239326   0.13059122   0.16005074 -0.029459521 
   77000    55.032162    86.985513  0.010239326   0.13060888   0.16379411 -0.033185236 
   78000     53.88191    86.974575  0.010239326   0.13059245   0.16037058 -0.029778125 
   79000     55.16996    86.872025  0.010239326   0.13043848   0.16420425  -0.03376577 
   80000    55.570649    87.051938  0.010239326   0.13070862   0.16539683 -0.034688217 
   81000    54.829276    87.033511  0.010239326   0.13068095   0.16319026 -0.032509309 
   82000    55.224116    86.989032  0.010239326   0.13061416   0.16436543  -0.03375127 
   83000    54.764859    87.036811  0.010239326    0.1306859   0.16299853  -0.03231263 
   84000    54.275184    87.021136  0.010239326   0.13066237    0.1615411 -0.030878729 
   85000    54.327282    87.079706  0.010239326   0.13075031   0.16169616 -0.030945848 
   86000    54.493446    86.947698  0.010239326    0.1305521   0.16219071 -0.031638615 
   87000    54.649444    86.934813  0.010239326   0.13053275   0.16265502 -0.032122265 
   88000     54.62182    86.930444  0.010239326   0.13052619    0.1625728 -0.032046608 
   89000    55.232812    87.023904  0.010239326   0.13066652   0.16439132 -0.033724793 
   90000    54.368522    87.037319  0.010239326   0.13068667    0.1618189 -0.031132233 
   91000    54.742542     86.96164  0.010239326   0.13057303   0.16293211 -0.032359076 
   92000    54.716234    87.032821  0.010239326   0.13067991   0.16285381 -0.032173898 
   93000    55.574292    86.940953  0.010239326   0.13054197   0.16540768 -0.034865703 
   94000    55.213164    87.028438  0.010239326   0.13067333   0.16433284 -0.033659506 
   95000    54.672476    87.009587  0.010239326   0.13064503   0.16272357 -0.032078543 
   96000    55.034287    86.985688  0.010239326   0.13060914   0.16380044 -0.033191297 
   97000    54.759918    87.040449  0.010239326   0.13069136   0.16298382 -0.032292459 
   98000    55.574904    86.894937  0.010239326   0.13047288    0.1654095 -0.034936619 
   99000    55.634261    87.039005  0.010239326    0.1306892   0.16558616 -0.034896967 
  100000    55.885343     86.87435  0.010239326   0.13044197   0.16633347 -0.035891499 
  101000     55.61013     86.89906  0.010239326   0.13047907   0.16551434 -0.035035272 
  102000    55.399003    86.948731  0.010239326   0.13055365   0.16488596 -0.034332307 
  103000    55.351183      87.0584  0.010239326   0.13071832   0.16474363 -0.034025309 
  104000    54.915638    87.000374  0.010239326   0.13063119    0.1634473 -0.032816107 
  105000    55.867906    86.921182  0.010239326   0.13051229   0.16628157 -0.035769284 
  106000    56.110242    86.925357  0.010239326   0.13051855   0.16700284 -0.036484287 
  107000    56.663827    86.823452  0.010239326   0.13036554    0.1686505 -0.038284953 
  108000    57.020767    86.947979  0.010239326   0.13055252   0.16971287 -0.039160347 
  109000    56.027301      87.0425  0.010239326   0.13069444   0.16675598 -0.036061539 
  110000     55.43941    86.980465  0.010239326    0.1306013   0.16500622 -0.034404922 
  111000    56.116256     86.98058  0.010239326   0.13060147   0.16702074 -0.036419269 
  112000    56.203647    86.870791  0.010239326   0.13043662   0.16728085 -0.036844224 
  113000    56.690382    86.795376  0.010239326   0.13032339   0.16872953 -0.038406143 
  114000    56.249335    86.972277  0.010239326     0.130589   0.16741683 -0.036827824 
  115000    55.862999    86.956494  0.010239326   0.13056531   0.16626696 -0.035701657 
  116000    54.604747    86.918972  0.010239326   0.13050897   0.16252198 -0.032013017 
  117000    56.098829    86.856659  0.010239326    0.1304154   0.16696887 -0.036553469 
  118000    56.129924    86.905473  0.010239326    0.1304887   0.16706142 -0.036572725 
  119000     55.74749    86.894389  0.010239326   0.13047206   0.16592317 -0.035451114 
  120000    56.857894    86.835303  0.010239326   0.13038334    0.1692281 -0.038844766 
  121000    56.005248    86.842901  0.010239326   0.13039475   0.16669035 -0.036295599 
  122000    56.760008    86.882881  0.010239326   0.13045478   0.16893676 -0.038481985 
  123000     56.64006    86.881667  0.010239326   0.13045295   0.16857976 -0.038126801 
  124000    55.879065    86.959652  0.010239326   0.13057005   0.16631478 -0.035744732 
  125000    56.346527    86.892297  0.010239326   0.13046891   0.16770611 -0.037237191 
  126000     56.55129    86.929146  0.010239326   0.13052424   0.16831555 -0.037791304 
  127000    55.783618    86.842394  0.010239326   0.13039399    0.1660307 -0.035636715 
  128000    55.869461    86.933047  0.010239326    0.1305301    0.1662862 -0.035756095 
  129000    57.218727    86.838353  0.010239326   0.13038792   0.17030206 -0.039914146 
  130000    56.942505     86.84245  0.010239326   0.13039407   0.16947993 -0.039085864 
  131000     57.21509    86.919499  0.010239326   0.13050976   0.17029124 -0.039781481 
  132000    57.126462    86.875523  0.010239326   0.13044373   0.17002745 -0.039583725 
  133000    56.857407    86.902604  0.010239326   0.13048439   0.16922665 -0.038742263 
  134000    58.141376    86.748455  0.010239326   0.13025294   0.17304817 -0.042795239 
  135000    56.039791    86.893868  0.010239326   0.13047127   0.16679316 -0.036321883 
  136000    56.670382    86.885657  0.010239326   0.13045894      0.16867 -0.038211059 
  137000    56.462915    86.880362  0.010239326   0.13045099   0.16805251 -0.037601521 
  138000    55.797806    86.945684  0.010239326   0.13054907   0.16607293 -0.035523853 
  139000     56.74812    86.981219  0.010239326   0.13060243   0.16890138 -0.038298947 
  140000    56.673764    86.934383  0.010239326   0.13053211   0.16868007 -0.038147963 
  141000    56.702942    86.753333  0.010239326   0.13026026   0.16876692 -0.038506656 
  142000    57.451731    86.725683  0.010239326   0.13021874   0.17099556 -0.040776819 
  143000    58.733729    86.573792  0.010239326   0.12999068   0.17481121 -0.044820536 
  144000    57.541867    86.812326  0.010239326   0.13034884   0.17126384 -0.040914998 
  145000    57.734514    86.840546  0.010239326   0.13039121   0.17183722 -0.041446007 
  146000     57.09538    86.890066  0.010239326   0.13046556   0.16993494 -0.039469376 
  147000    56.669812     86.93428  0.010239326   0.13053195   0.16866831 -0.038136356 
  148000     56.65968    86.906029  0.010239326   0.13048953   0.16863815  -0.03814862 
  149000    57.486111    86.932912  0.010239326    0.1305299   0.17109789  -0.04056799 
  150000    56.261421     86.91725  0.010239326   0.13050638    0.1674528 -0.036946418 
  151000     55.82052    86.995676  0.010239326   0.13062414   0.16614053 -0.035516393 
  152000    55.280256    86.992434  0.010239326   0.13061927   0.16453252 -0.033913254 
  153000    55.847853    86.934276  0.010239326   0.13053195   0.16622188 -0.035689936 
  154000    56.500332     86.91028  0.010239326   0.13049592   0.16816388 -0.037667964 
  155000    55.815992    86.933045  0.010239326    0.1305301   0.16612705 -0.035596957 
  156000    56.491673    86.902657  0.010239326   0.13048447   0.16813811 -0.037653636 
  157000    55.745057    86.983636  0.010239326   0.13060606   0.16591593 -0.035309869 
  158000    55.852583    86.952708  0.010239326   0.13055962   0.16623596 -0.035676342 
  159000    56.635515    86.882264  0.010239326   0.13045385   0.16856623 -0.038112381 
  160000    57.723022    86.799607  0.010239326   0.13032974   0.17180301 -0.041473273 
  161000     57.37645    86.716652  0.010239326   0.13020518    0.1707715 -0.040566316 
  162000    55.487563    86.940515  0.010239326   0.13054131   0.16514954 -0.034608226 
  163000    56.026881    86.908618  0.010239326   0.13049342   0.16675473 -0.036261312 
  164000    55.380308    86.958665  0.010239326   0.13056857   0.16483031 -0.034261747 
  165000    56.390866    86.872342  0.010239326   0.13043895   0.16783807 -0.037399119 
  166000    54.150726    87.007935  0.010239326   0.13064255   0.16117067  -0.03052812 
  167000    55.957433    86.885462  0.010239326   0.13045865   0.16654803  -0.03608938 
  168000    55.889035    86.978839  0.010239326   0.13059886   0.16634446 -0.035745599 
  169000    55.053612    86.979064  0.010239326    0.1305992   0.16385796 -0.033258763 
  170000     55.20381    86.966972  0.010239326   0.13058104     0.164305 -0.033723958 
  171000    55.293947    87.058587  0.010239326    0.1307186   0.16457327 -0.033854674 
  172000    54.740506    87.019172  0.010239326   0.13065942   0.16292605 -0.032266633 
  173000    55.222095    86.979904  0.010239326   0.13060046   0.16435942 -0.033758962 
  174000    55.193965    86.979614  0.010239326   0.13060002    0.1642757 -0.033675674 
  175000    54.199326    87.019333  0.010239326   0.13065966   0.16131532 -0.030655656 
  176000    55.371451    86.944912  0.010239326   0.13054792   0.16480395 -0.034256036 
  177000    55.591391    86.878353  0.010239326   0.13044798   0.16545857 -0.035010591 
  178000    56.256891    86.850832  0.010239326   0.13040665   0.16743932 -0.037032664 
  179000    56.367592    86.894867  0.010239326   0.13047277    0.1677688 -0.037296028 
  180000    55.460227    86.805295  0.010239326   0.13033828   0.16506818   -0.0347299 
  181000    55.229545    86.928009  0.010239326   0.13052254   0.16438159 -0.033859057 
  182000    55.867378    86.966591  0.010239326   0.13058047      0.16628 -0.035699529 
  183000    56.517234    86.832287  0.010239326   0.13037881   0.16821419 -0.037835377 
  184000    56.851303    86.883254  0.010239326   0.13045534   0.16920849 -0.038753151 
  185000    56.899077    86.850417  0.010239326   0.13040603   0.16935068 -0.038944647 
  186000    55.597989    86.863257  0.010239326   0.13042531   0.16547821 -0.035052895 
  187000     55.90637    86.842585  0.010239326   0.13039427   0.16639605 -0.036001777 
  188000    56.735193    86.819664  0.010239326   0.13035986   0.16886291 -0.038503049 
  189000    55.640737    86.855223  0.010239326   0.13041325   0.16560544 -0.035192189 
  190000    56.868636    86.831809  0.010239326   0.13037809   0.16926007 -0.038881984 
  191000    55.975194    86.924787  0.010239326    0.1305177   0.16660089 -0.036083195 
  192000    56.189616     86.88703  0.010239326   0.13046101   0.16723908 -0.036778079 
  193000    57.831981    86.790994  0.010239326   0.13031681   0.17212731 -0.041810505 
  194000     57.21651    86.819525  0.010239326   0.13035965   0.17029547 -0.039935819 
  195000    57.423226    86.835428  0.010239326   0.13038353   0.17091072 -0.040527193 
  196000    57.374923    86.822728  0.010239326   0.13036446   0.17076695 -0.040402497 
  197000     57.43371    86.801269  0.010239326   0.13033224   0.17094193  -0.04060969 
  198000    56.126128    86.872713  0.010239326   0.13043951   0.16705012 -0.036610615 
  199000    56.246022    86.873837  0.010239326    0.1304412   0.16740697 -0.036965771 
  200000    56.342505    86.904913  0.010239326   0.13048786   0.16769413 -0.037206275 
  201000    55.920813    86.869393  0.010239326   0.13043452   0.16643904 -0.036004513 
  202000    56.012581     86.79139  0.010239326    0.1303174   0.16671217 -0.036394768 
  203000    55.071883     86.85478  0.010239326   0.13041258   0.16391234 -0.033499756 
  204000    56.469686    86.843426  0.010239326   0.13039553   0.16807267 -0.037677133 
  205000     55.53629     86.82771  0.010239326   0.13037194   0.16529457 -0.034922633 
  206000    56.169163    86.901528  0.010239326   0.13048278   0.16717821 -0.036695434 
  207000    55.008831    86.878078  0.010239326   0.13044756   0.16372467  -0.03327711 
  208000    56.139745    86.778427  0.010239326   0.13029794   0.16709065 -0.036792714 
  209000    56.760032    86.691462  0.010239326   0.13016736   0.16893683 -0.038769474 
  210000    56.257802     86.79682  0.010239326   0.13032556   0.16744203 -0.037116473 
  211000    56.342005    86.650793  0.010239326    0.1301063   0.16769265 -0.037586351 
  212000     56.77741    86.814635  0.010239326   0.13035231   0.16898856 -0.038636251 
  213000    57.838155    86.722365  0.010239326   0.13021376   0.17214569 -0.041931925 
  214000     56.85656     86.76134  0.010239326   0.13027228   0.16922413 -0.038951851 
  215000     57.31576    86.782046  0.010239326   0.13030337   0.17059087 -0.040287494 
  216000    57.077073    86.703741  0.010239326    0.1301858   0.16988045 -0.039694657 
  217000    56.713121    86.862713  0.010239326   0.13042449   0.16879721 -0.038372718 
  218000    56.806619    86.917451  0.010239326   0.13050668   0.16907549 -0.038568808 
  219000    56.950881     86.75112  0.010239326   0.13025694   0.16950486 -0.039247926 
  220000    56.702401    86.724103  0.010239326   0.13021637    0.1687653 -0.038548932 
  221000    55.759528     86.81565  0.010239326   0.13035383     0.165959  -0.03560517 
  222000    58.285333    86.709267  0.010239326   0.13019409   0.17347664 -0.043282544 
  223000    57.734651    86.731505  0.010239326   0.13022748   0.17183763 -0.041610141 
  224000    57.564254    86.679031  0.010239326   0.13014869   0.17133047 -0.041181772 
  225000    58.347827    86.618707  0.010239326   0.13005812   0.17366264 -0.043604523 
  226000    58.465637    86.612348  0.010239326   0.13004857   0.17401329 -0.043964715 
  227000    57.805834    86.683504  0.010239326   0.13015541   0.17204949  -0.04189408 
  228000    57.431734    86.741441  0.010239326    0.1302424   0.17093604  -0.04069364 
  229000    57.016747    86.748545  0.010239326   0.13025307    0.1697009 -0.039447832 
  230000    57.165915    86.849311  0.010239326   0.13040437   0.17014488 -0.039740506 
  231000     56.63893    86.764285  0.010239326    0.1302767   0.16857639  -0.03829969 
  232000    57.149882    86.755515  0.010239326   0.13026354   0.17009716 -0.039833621 
  233000    56.755997    86.754655  0.010239326   0.13026224   0.16892482 -0.038662579 
  234000    56.915461    86.821993  0.010239326   0.13036335   0.16939944  -0.03903609 
  235000    57.229418    86.695569  0.010239326   0.13017353   0.17033388 -0.040160356 
  236000    56.101715    86.785818  0.010239326   0.13030904   0.16697746 -0.036668425 
  237000    57.263933    86.672536  0.010239326   0.13013894   0.17043661  -0.04029767 
  238000    55.878646     86.80181  0.010239326   0.13033305   0.16631353 -0.035980487 
  239000    56.931112    86.703978  0.010239326   0.13018615   0.16944602 -0.039259871 
  240000     57.54279    86.613345  0.010239326   0.13005007   0.17126658 -0.041216517 
  241000    56.882576    86.684658  0.010239326   0.13015714   0.16930156 -0.039144419 
  242000    56.592602    86.776457  0.010239326   0.13029498   0.16843851 -0.038143527 
  243000    58.392503    86.595561  0.010239326   0.13002337   0.17379561 -0.043772248 
  244000    56.511889    86.691962  0.010239326   0.13016811   0.16819828 -0.038030166 
  245000    56.252274    86.708646  0.010239326   0.13019316   0.16742558 -0.037232414 
  246000    56.306293    86.634456  0.010239326   0.13008177   0.16758635 -0.037504588 
  247000    56.609802    86.697447  0.010239326   0.13017635    0.1684897 -0.038313352 
  248000    57.876873    86.691767  0.010239326   0.13016782   0.17226093 -0.042093108 
  249000    57.295291     86.78148  0.010239326   0.13030252   0.17052994 -0.040227422 
  250000    56.630248    86.754089  0.010239326   0.13026139   0.16855055 -0.038289158 
  251000    57.882575    86.654142  0.010239326   0.13011132    0.1722779 -0.042166573 
  252000    58.105455    86.562187  0.010239326   0.12997325   0.17294126 -0.042968008 
  253000    58.978192    86.641211  0.010239326   0.13009191   0.17553882 -0.045446911 
  254000    57.864368    86.667335  0.010239326   0.13013113   0.17222371 -0.042092572 
  255000    58.442774    86.533249  0.010239326    0.1299298   0.17394524 -0.044015434 
  256000    57.907872    86.569763  0.010239326   0.12998463   0.17235319 -0.042368559 
  257000    57.938397    86.507037  0.010239326   0.12989045   0.17244404 -0.042553597 
  258000    58.972251    86.551996  0.010239326   0.12995795   0.17552114 -0.045563184 
  259000    58.369711    86.651624  0.010239326   0.13010754   0.17372778 -0.043620234 
  260000    58.350685    86.628941  0.010239326   0.13007348   0.17367115 -0.043597665 
  261000    58.694119    86.440999  0.010239326   0.12979129   0.17469332 -0.044902034 
  262000    59.038941    86.582182  0.010239326   0.13000328   0.17571963 -0.045716353 
  263000    57.909642    86.639744  0.010239326   0.13008971   0.17235846 -0.042268752 
  264000    58.050266    86.641942  0.010239326   0.13009301     0.172777 -0.042683996 
  265000    58.393549    86.684911  0.010239326   0.13015752   0.17379873 -0.043641202 
  266000    58.147661     86.62663  0.010239326   0.13007002   0.17306688 -0.042996865 
  267000     57.98425    86.688525  0.010239326   0.13016295   0.17258052 -0.042417566 
  268000    56.717042     86.72571  0.010239326   0.13021878   0.16880888 -0.038590096 
  269000    57.025557    86.776784  0.010239326   0.13029547   0.16972712 -0.039431653 
  270000     57.33672    86.625736  0.010239326   0.13006867   0.17065325 -0.040584577 
  271000    58.143583    86.588733  0.010239326   0.13001311   0.17305475 -0.043041633 
  272000    57.934776    86.691766  0.010239326   0.13016782   0.17243326 -0.042265448 
  273000    57.364814    86.713779  0.010239326   0.13020087   0.17073687 -0.040535999 
  274000    56.863606    86.738627  0.010239326   0.13023818    0.1692451 -0.039006925 
  275000    56.285488    86.659291  0.010239326   0.13011906   0.16752443 -0.037405376 
  276000    56.547728    86.758095  0.010239326   0.13026741   0.16830494 -0.038037535 
  277000    57.910442    86.595102  0.010239326   0.13002268   0.17236084 -0.042338161 
  278000    56.763706    86.687632  0.010239326   0.13016161   0.16894777 -0.038786158 
  279000    57.190963    86.562299  0.010239326   0.12997342   0.17021943 -0.040246006 
  280000    58.246768    86.705409  0.010239326    0.1301883   0.17336186 -0.043173555 
  281000    58.135475    86.526689  0.010239326   0.12991995   0.17303061 -0.043110657 
  282000    57.158357    86.659892  0.010239326   0.13011996   0.17012238 -0.040002424 
  283000    58.240024    86.538182  0.010239326   0.12993721   0.17334179 -0.043404575 
  284000    57.858773    86.721793  0.010239326    0.1302129   0.17220705 -0.041994151 
  285000    57.712974    86.718915  0.010239326   0.13020858   0.17177311 -0.041564525 
  286000    56.619785    86.656841  0.010239326   0.13011538   0.16851941 -0.038404033 
  287000    57.558158    86.610027  0.010239326   0.13004508   0.17131232 -0.041267239 
  288000    56.347795    86.776346  0.010239326   0.13029481   0.16770988 -0.037415066 
  289000    55.851839    86.824198  0.010239326   0.13036666   0.16623375 -0.035867085 
  290000      56.6166    86.697777  0.010239326   0.13017684   0.16850993 -0.038333089 
  291000    56.552874    86.706251  0.010239326   0.13018957   0.16832026 -0.038130698 
  292000    56.817011    86.631777  0.010239326   0.13007774   0.16910642 -0.039028679 
  293000    57.511227    86.728528  0.010239326   0.13022302   0.17117264 -0.040949624 
  294000    57.575744    86.541597  0.010239326   0.12994234   0.17136466 -0.041422325 
  295000    57.910083    86.618737  0.010239326   0.13005816   0.17235977 -0.042301606 
  296000    56.460038    86.742814  0.010239326   0.13024447   0.16804395 -0.037799484 
  297000    55.621578    86.782351  0.010239326   0.13030383   0.16554841 -0.035244584 
  298000    57.433558    86.657891  0.010239326   0.13011695   0.17094147 -0.040824518 
  299000    56.300999    86.668544  0.010239326   0.13013295    0.1675706 -0.037437648 
  300000    58.392695    86.494387  0.010239326   0.12987145   0.17379618 -0.043924732 
  301000    57.448874    86.597861  0.010239326   0.13002682   0.17098706 -0.040960239 
  302000    57.018366     86.72703  0.010239326   0.13022077   0.16970572 -0.039484956 
  303000    58.262005    86.554829  0.010239326   0.12996221   0.17340721    -0.043445 
  304000    57.739434    86.688887  0.010239326   0.13016349   0.17185186 -0.041688367 
  305000     56.79624    86.747175  0.010239326   0.13025101    0.1690446 -0.038793587 
  306000    58.457043    86.714973  0.010239326   0.13020266   0.17398771 -0.043785043 
  307000    59.909518    86.526007  0.010239326   0.12991893   0.17831076 -0.048391827 
  308000    59.749557    86.474164  0.010239326   0.12984109   0.17783466 -0.047993572 
  309000    58.096594    86.702762  0.010239326   0.13018433   0.17291489 -0.042730561 
  310000    58.944204    86.545103  0.010239326    0.1299476   0.17543766 -0.045490058 
  311000    59.243713    86.345745  0.010239326   0.12964827    0.1763291 -0.046680832 
  312000    59.178108    86.569668  0.010239326   0.12998449   0.17613384  -0.04614935 
  313000    57.894642    86.610219  0.010239326   0.13004537   0.17231381 -0.042268438 
  314000    58.832229    86.591723  0.010239326    0.1300176   0.17510439 -0.045086783 
  315000    58.355245    86.683485  0.010239326   0.13015538   0.17368472 -0.043529336 
  316000    58.768152    86.535278  0.010239326   0.12993285   0.17491367  -0.04498082 
  317000    57.694574    86.628112  0.010239326   0.13007224   0.17171834 -0.041646104 
  318000    58.679862    86.483449  0.010239326   0.12985503   0.17465089 -0.044795859 
  319000    58.053271    86.530069  0.010239326   0.12992503   0.17278595 -0.042860917 
  320000    58.230494    86.597242  0.010239326   0.13002589   0.17331342 -0.043287533 
  321000    56.764936     86.72299  0.010239326    0.1302147   0.16895143  -0.03873673 
  322000     57.01311    86.651303  0.010239326   0.13010706   0.16969008 -0.039583017 
  323000    57.082217    86.663468  0.010239326   0.13012533   0.16989576 -0.039770436 
  324000    57.643625    86.643611  0.010239326   0.13009551    0.1715667  -0.04147119 
  325000     56.11727    86.636619  0.010239326   0.13008501   0.16702376 -0.036938744 
  326000    56.808806    86.728903  0.010239326   0.13022358     0.169082 -0.038858424 
  327000    55.881021     86.73448  0.010239326   0.13023195    0.1663206 -0.036088651 
  328000    56.121644    86.534621  0.010239326   0.12993186   0.16703678 -0.037104913 
  329000    56.952286    86.640309  0.010239326   0.13009055   0.16950905 -0.039418491 
  330000    57.888169    86.609413  0.010239326   0.13004416   0.17229455 -0.042250384 
  331000     56.47311    86.639915  0.010239326   0.13008996   0.16808286 -0.037992894 
  332000    56.507158    86.775953  0.010239326   0.13029422    0.1681842 -0.037889971 
  333000    56.376435    86.675398  0.010239326   0.13014324   0.16779512 -0.037651882 
  334000    57.031814    86.573238  0.010239326   0.12998985   0.16974575 -0.039755902 
  335000    56.888637    86.554507  0.010239326   0.12996172   0.16931961 -0.039357882 
  336000    56.336666    86.682305  0.010239326   0.13015361   0.16767676 -0.037523144 
  337000    56.075421    86.760012  0.010239326   0.13027029    0.1668992 -0.036628915 
  338000    57.218104    86.603145  0.010239326   0.13003475   0.17030021 -0.040265457 
  339000    57.093885    86.707575  0.010239326   0.13019155   0.16993049 -0.039738938 
  340000    56.738124    86.651186  0.010239326   0.13010689   0.16887163 -0.038764741 
  341000    56.034963    86.725084  0.010239326   0.13021784   0.16677879 -0.036560942 
  342000    57.667202    86.638119  0.010239326   0.13008727   0.17163688 -0.041549611 
  343000     56.47045    86.673099  0.010239326   0.13013979   0.16807494 -0.037935153 
  344000     55.42466    86.743962  0.010239326   0.13024619   0.16496232 -0.034716132 
  345000    54.887215    86.862055  0.010239326   0.13042351    0.1633627 -0.032939198 
  346000    55.246453    86.783168  0.010239326   0.13030506   0.16443192 -0.034126859 
  347000     56.12944    86.819172  0.010239326   0.13035912   0.16705998 -0.036700865 
  348000      56.3082    86.667272  0.010239326   0.13013104   0.16759203 -0.037460992 
  349000    56.377519    86.743228  0.010239326   0.13024509   0.16779835  -0.03755326 
  350000    56.720202    86.709097  0.010239326   0.13019384   0.16881829 -0.038624448 
  351000    56.389612    86.799941  0.010239326   0.13033024   0.16783434 -0.037504098 
  352000    57.569832    86.643234  0.010239326   0.13009495   0.17134707 -0.041252125 
  353000    55.974034    86.809789  0.010239326   0.13034503   0.16659744 -0.036252411 
  354000    56.212727    86.805442  0.010239326    0.1303385   0.16730787 -0.036969369 
  355000    56.590866    86.697556  0.010239326   0.13017651   0.16843334 -0.038256828 
  356000    57.520017     86.68717  0.010239326   0.13016092    0.1711988 -0.041037888 
  357000     56.64174     86.77097  0.010239326   0.13028674   0.16858476 -0.038298017 
  358000    57.537172    86.620849  0.010239326   0.13006133   0.17124986 -0.041188528 
  359000    58.006363    86.656574  0.010239326   0.13011498   0.17264633 -0.042531356 
  360000    58.012906    86.742892  0.010239326   0.13024458   0.17266581 -0.042421223 
  361000    56.075719    86.761412  0.010239326   0.13027239   0.16690009 -0.036627698 
  362000    56.810265     86.77139  0.010239326   0.13028737   0.16908634 -0.038798971 
  363000    57.265696    86.754116  0.010239326   0.13026144   0.17044186 -0.040180423 
  364000    57.494704    86.640119  0.010239326   0.13009027   0.17112346 -0.041033195 
  365000    57.051207    86.731225  0.010239326   0.13022706   0.16980347 -0.039576402 
  366000    57.109081    86.851472  0.010239326   0.13040762   0.16997572 -0.039568104 
  367000    56.920556    86.605333  0.010239326   0.13003804   0.16941461 -0.039376569 
  368000     56.43417    86.844007  0.010239326   0.13039641   0.16796696 -0.037570552 
  369000    56.929177    86.580989  0.010239326   0.13000148   0.16944027 -0.039438781 
  370000    56.699756    86.656636  0.010239326   0.13011507   0.16875743 -0.038642363 
  371000     57.66754    86.793142  0.010239326   0.13032003   0.17163788 -0.041317849 
  372000     56.72071    86.746761  0.010239326   0.13025039    0.1688198 -0.038569407 
  373000    56.295613    86.832347  0.010239326    0.1303789   0.16755457 -0.037175669 
  374000    56.282708    86.769941  0.010239326    0.1302852   0.16751616 -0.037230961 
  375000    55.341048    86.802618  0.010239326   0.13033426   0.16471346   -0.0343792 
  376000    57.261815    86.812863  0.010239326   0.13034964   0.17043031 -0.040080663 
  377000    57.360424    86.588725  0.010239326    0.1300131    0.1707238 -0.040710701 
  378000    56.179393     86.67417  0.010239326    0.1301414   0.16720866 -0.037067262 
  379000    57.186509    86.637126  0.010239326   0.13008577   0.17020617 -0.040120396 
  380000    56.236184    86.805608  0.010239326   0.13033875   0.16737769 -0.037038937 
  381000    57.634773    86.560399  0.010239326   0.12997057   0.17154035 -0.041569786 
  382000    57.469747    86.538611  0.010239326   0.12993785   0.17104918 -0.041111329 
  383000    57.276904    86.611558  0.010239326   0.13004738   0.17047522 -0.040427833 
  384000    57.561898    86.695431  0.010239326   0.13017332   0.17132346 -0.041150136 
  385000    57.522266    86.614251  0.010239326   0.13005143    0.1712055  -0.04115407 
  386000    57.048252    86.720821  0.010239326   0.13021144   0.16979467 -0.039583229 
  387000     57.78189    86.578914  0.010239326   0.12999837   0.17197822 -0.041979854 
  388000    56.949148    86.563789  0.010239326   0.12997566    0.1694997 -0.039524045 
  389000    56.046134    86.744167  0.010239326    0.1302465   0.16681204 -0.036565538 
  390000    56.892416    86.692466  0.010239326   0.13016887   0.16933085 -0.039161986 
  391000    56.686933    86.739663  0.010239326   0.13023973   0.16871927 -0.038479532 
  392000     57.79428    86.695539  0.010239326   0.13017348    0.1720151 -0.041841621 
  393000     58.38179    86.546224  0.010239326   0.12994928   0.17376373 -0.043814442 
  394000    57.213133    86.558702  0.010239326   0.12996802   0.17028541 -0.040317392 
  395000    57.509638    86.546644  0.010239326   0.12994992   0.17116791 -0.041217995 
  396000    56.149856    86.762645  0.010239326   0.13027424   0.16712075 -0.036846505 
  397000    57.301129    86.580227  0.010239326   0.13000034   0.17054732 -0.040546977 
  398000    56.989158    86.664757  0.010239326   0.13012726   0.16961879 -0.039491526 
  399000    56.849782    86.738739  0.010239326   0.13023835   0.16920396 -0.038965612 
  400000    57.113614    86.719362  0.010239326   0.13020925   0.16998921 -0.039779959 
  401000    57.800814    86.576013  0.010239326   0.12999401   0.17203455 -0.042040534 
  402000    57.607368    86.660484  0.010239326   0.13012085   0.17145879 -0.041337941 
  403000    56.936393    86.746753  0.010239326   0.13025038   0.16946174 -0.039211362 
  404000    57.077924    86.727212  0.010239326   0.13022104   0.16988299 -0.039661946 
  405000    56.810718    86.739076  0.010239326   0.13023885   0.16908769  -0.03884884 
  406000    56.152487    86.746855  0.010239326   0.13025053   0.16712858 -0.036878043 
  407000    56.424822      86.6538  0.010239326   0.13011081   0.16793914 -0.037828325 
  408000    56.983913    86.620488  0.010239326   0.13006079   0.16960318 -0.039542386 
  409000    57.323747    86.641372  0.010239326   0.13009215   0.17061464 -0.040522486 
  410000     58.30447    86.625912  0.010239326   0.13006894    0.1735336 -0.043464661 
  411000    56.687759    86.739395  0.010239326   0.13023933   0.16872172 -0.038482393 
  412000    57.227129     86.69154  0.010239326   0.13016748   0.17032707 -0.040159592 
  413000    56.174006    86.683954  0.010239326   0.13015609   0.16719263 -0.037036538 
  414000    56.920299    86.606004  0.010239326   0.13003905   0.16941384 -0.039374796 
  415000    56.629488    86.699666  0.010239326   0.13017968   0.16854829 -0.038368614 
  416000    57.791218    86.489057  0.010239326   0.12986345   0.17200599 -0.042142539 
  417000    56.757891    86.663247  0.010239326     0.130125   0.16893046 -0.038805466 
  418000    56.599489    86.698975  0.010239326   0.13017864   0.16845901 -0.038280363 
  419000    56.457752    86.613424  0.010239326   0.13005019   0.16803715  -0.03798696 
  420000    56.739904    86.582503  0.010239326   0.13000376   0.16887692 -0.038873167 
  421000    56.630055    86.561876  0.010239326   0.12997279   0.16854998 -0.038577193 
  422000    57.010042    86.697994  0.010239326   0.13017717   0.16968095 -0.039503779 
  423000    56.202974    86.820196  0.010239326   0.13036066   0.16727884 -0.036918186 
  424000    56.390147    86.705814  0.010239326   0.13018891   0.16783593 -0.037647023 
  425000     56.38665    86.705406  0.010239326    0.1301883   0.16782552 -0.037637226 
  426000    56.901052    86.597052  0.010239326    0.1300256   0.16935656 -0.039330952 
  427000    56.623527    86.645014  0.010239326   0.13009762   0.16853055  -0.03843293 
  428000    57.102114    86.611418  0.010239326   0.13004717   0.16995499 -0.039907811 
  429000    57.202327    86.578003  0.010239326     0.129997   0.17025325 -0.040256249 
  430000    57.763531    86.515495  0.010239326   0.12990315   0.17192358 -0.042020435 
  431000     56.93226    86.581321  0.010239326   0.13000198   0.16944944 -0.039447459 
  432000    57.062764    86.505428  0.010239326   0.12988803   0.16983786 -0.039949835 
  433000    58.101244     86.49394  0.010239326   0.12987078   0.17292873 -0.043057948 
  434000     57.21364    86.599845  0.010239326    0.1300298   0.17028692 -0.040257125 
  435000    57.752756    86.489034  0.010239326   0.12986341   0.17189151 -0.042028099 
  436000    56.883634    86.551371  0.010239326   0.12995701   0.16930471 -0.039347702 
  437000    57.955214    86.546471  0.010239326   0.12994966   0.17249409 -0.042544438 
  438000    58.329295    86.513639  0.010239326   0.12990036   0.17360748 -0.043707125 
  439000    58.830511    86.537177  0.010239326    0.1299357   0.17509927 -0.045163571 
  440000    58.583168    86.526841  0.010239326   0.12992018    0.1743631 -0.044442914 
  441000    58.035872    86.512477  0.010239326   0.12989861   0.17273416 -0.042835545 
  442000      57.2321    86.538158  0.010239326   0.12993717   0.17034186  -0.04040469 
  443000    57.071784    86.484268  0.010239326   0.12985626   0.16986471 -0.040008455 
  444000    57.593812    86.524336  0.010239326   0.12991642   0.17141844 -0.041502021 
  445000    57.565348    86.559662  0.010239326   0.12996946   0.17133372  -0.04136426 
  446000    58.676366    86.414182  0.010239326   0.12975102   0.17464048  -0.04488946 
  447000    58.899855     86.42664  0.010239326   0.12976973   0.17530566 -0.045535932 
  448000    57.808216    86.485589  0.010239326   0.12985824   0.17205658 -0.042198337 
  449000    58.461535    86.500399  0.010239326   0.12988048   0.17400108 -0.044120598 
  450000    57.991357    86.423352  0.010239326   0.12976479   0.17260167 -0.042836875 
  451000    57.570006    86.565834  0.010239326   0.12997873   0.17134759 -0.041368856 
  452000    58.370076    86.605307  0.010239326     0.130038   0.17372886 -0.043690863 
  453000    57.736195    86.618546  0.010239326   0.13005788   0.17184222 -0.041784343 
  454000    57.089335    86.666941  0.010239326   0.13013054   0.16991695 -0.039786406 
  455000     57.02186    86.593695  0.010239326   0.13002056   0.16971612 -0.039695558 
  456000    59.091359    86.490276  0.010239326   0.12986528   0.17587564 -0.046010363 
  457000    58.587745    86.542795  0.010239326   0.12994414   0.17437672 -0.044432581 
  458000    59.658605    86.512469  0.010239326    0.1298986   0.17756396 -0.047665353 
  459000    58.574072    86.512077  0.010239326   0.12989801   0.17433602 -0.044438011 
  460000    57.982784    86.675774  0.010239326   0.13014381   0.17257615 -0.042432348 
  461000    58.486767    86.575698  0.010239326   0.12999354   0.17407617 -0.044082634 
  462000    58.385503    86.571867  0.010239326   0.12998779   0.17377478 -0.043786992 
  463000    57.754358     86.58805  0.010239326   0.13001209   0.17189628 -0.041884192 
  464000    57.584554    86.540927  0.010239326   0.12994133   0.17139089 -0.041449554 
  465000    58.441663    86.502607  0.010239326   0.12988379   0.17394193 -0.044058136 
  466000    58.229437    86.565741  0.010239326   0.12997859   0.17331027 -0.043331685 
  467000    57.820862    86.660666  0.010239326   0.13012112   0.17209422 -0.041973098 
  468000    57.609551    86.628409  0.010239326   0.13007269   0.17146528 -0.041392599 
  469000     58.53916    86.547782  0.010239326   0.12995162   0.17423211  -0.04428049 
  470000    58.980932    86.553452  0.010239326   0.12996014   0.17554697 -0.045586836 
  471000    58.590373    86.616554  0.010239326   0.13005489   0.17438454 -0.044329653 
  472000     58.56296    86.544223  0.010239326   0.12994628   0.17430295 -0.044356669 
  473000    57.971732    86.662632  0.010239326   0.13012407   0.17254326 -0.042419187 
  474000    58.085297    86.520858  0.010239326    0.1299112   0.17288127 -0.042970067 
  475000    58.596836    86.607776  0.010239326   0.13004171   0.17440378 -0.044362071 
  476000    58.127311    86.570226  0.010239326   0.12998533   0.17300631 -0.043020986 
  477000    58.262708    86.496318  0.010239326   0.12987435    0.1734093 -0.043534948 
  478000    58.628614    86.492572  0.010239326   0.12986873   0.17449836 -0.044629632 
  479000     58.35233     86.54418  0.010239326   0.12994622   0.17367605  -0.04372983 
  480000    58.661057    86.419114  0.010239326   0.12975843   0.17459492  -0.04483649 
  481000    58.912018    86.513475  0.010239326   0.12990011   0.17534186  -0.04544175 
  482000     58.96186    86.482505  0.010239326   0.12985361   0.17549021   -0.0456366 
  483000    59.175778    86.391915  0.010239326   0.12971759    0.1761269 -0.046409309 
  484000    59.511853    86.458308  0.010239326   0.12981728   0.17712717 -0.047309894 
  485000    59.516632    86.520354  0.010239326   0.12991044    0.1771414 -0.047230956 
  486000    59.747552    86.509312  0.010239326   0.12989386   0.17782869 -0.047934831 
  487000    59.647073    86.533676  0.010239326   0.12993044   0.17752963 -0.047599189 
  488000    59.574197    86.478257  0.010239326   0.12984723   0.17731273 -0.047465496 
  489000    58.827444    86.517019  0.010239326   0.12990543   0.17509014  -0.04518471 
  490000    59.105262    86.607363  0.010239326   0.13004109   0.17591702 -0.045875937 
  491000    59.667083    86.567869  0.010239326   0.12998179   0.17758919 -0.047607404 
  492000     58.70287    86.610541  0.010239326   0.13004586   0.17471937  -0.04467351 
  493000    58.512498    86.665257  0.010239326   0.13012801   0.17415276 -0.044024745 
  494000    58.131728    86.666801  0.010239326   0.13013033   0.17301946 -0.042889128 
  495000    57.784702    86.614923  0.010239326   0.13005244   0.17198659 -0.041934156 
  496000    58.866615    86.528535  0.010239326   0.12992273   0.17520673 -0.045284004 
  497000     57.57916    86.705069  0.010239326   0.13018779   0.17137483 -0.041187042 
  498000    57.885303    86.697317  0.010239326   0.13017615   0.17228602 -0.042109864 
  499000    58.601775    86.622379  0.010239326   0.13006363   0.17441848 -0.044354844 
  500000    58.086276    86.586096  0.010239326   0.13000915   0.17288418 -0.042875025 
  501000     58.59742     86.51041  0.010239326   0.12989551   0.17440551 -0.044510002 
  502000     59.55937    86.455564  0.010239326   0.12981316    0.1772686 -0.047455441 
  503000    59.684756    86.637449  0.010239326   0.13008626   0.17764179 -0.047555532 
  504000    60.416176    86.541803  0.010239326   0.12994265   0.17981874 -0.049876094 
  505000    59.241836    86.541321  0.010239326   0.12994192   0.17632351 -0.046381589 
  506000    59.817313    86.481792  0.010239326   0.12985254   0.17803632 -0.048183782 
  507000    60.041894     86.48101  0.010239326   0.12985137   0.17870475 -0.048853385 
  508000    60.529921    86.406013  0.010239326   0.12973876   0.18015728 -0.050418525 
  509000    59.882329    86.558453  0.010239326   0.12996765   0.17822983 -0.048262185 
  510000     58.35414     86.53957  0.010239326   0.12993929   0.17368143 -0.043742138 
  511000    58.895762    86.496526  0.010239326   0.12987466   0.17529348 -0.045418817 
  512000    57.688826    86.693535  0.010239326   0.13017047   0.17170124 -0.041530764 
  513000    58.503866    86.608344  0.010239326   0.13004256   0.17412707 -0.044084509 
  514000    59.364127    86.586929  0.010239326    0.1300104   0.17668749 -0.046677087 
  515000    58.976115    86.610527  0.010239326   0.13004584   0.17553264   -0.0454868 
  516000    58.429075    86.645691  0.010239326   0.13009863   0.17390446 -0.043805829 
  517000    59.409176    86.542298  0.010239326   0.12994339   0.17682157 -0.046878182 
  518000    58.835141    86.548143  0.010239326   0.12995217   0.17511305 -0.045160884 
  519000    59.073621     86.67727  0.010239326   0.13014605   0.17582285 -0.045676796 
  520000    58.662485    86.485895  0.010239326    0.1298587   0.17459917 -0.044740469 
  521000    58.083424    86.676052  0.010239326   0.13014422   0.17287569 -0.042731467 
  522000     58.49759    86.575318  0.010239326   0.12999297   0.17410839 -0.044115419 
  523000    60.539572    86.388251  0.010239326   0.12971209   0.18018601 -0.050473921 
  524000    58.962869    86.468617  0.010239326   0.12983276   0.17549321 -0.045660455 
  525000    57.146641     86.58691  0.010239326   0.13001037   0.17008751 -0.040077137 
  526000    58.209813     86.57056  0.010239326   0.12998583   0.17325187 -0.043266039 
  527000    58.856043    86.487539  0.010239326   0.12986117   0.17517526 -0.045314094 
  528000    57.190124    86.625782  0.010239326   0.13006874   0.17021693 -0.040148191 
  529000    57.855654    86.626853  0.010239326   0.13007035   0.17219777 -0.042127422 
  530000    58.766692    86.492873  0.010239326   0.12986918   0.17490932 -0.045040147 
  531000    58.257527    86.543267  0.010239326   0.12994485   0.17339388 -0.043449033 
  532000    58.905933    86.434728  0.010239326   0.12978187   0.17532375 -0.045541879 
  533000    59.956336    86.436368  0.010239326   0.12978434    0.1784501 -0.048665768 
  534000    58.592398    86.381431  0.010239326   0.12970185   0.17439057 -0.044688719 
  535000    60.141488    86.368989  0.010239326   0.12968317   0.17900118  -0.04931801 
  536000    58.494203    86.424983  0.010239326   0.12976724   0.17409831 -0.044331066 
  537000    59.344301    86.463232  0.010239326   0.12982467   0.17662848  -0.04680381 
  538000    59.879299    86.423934  0.010239326   0.12976567   0.17822081 -0.048455148 
  539000    58.850411    86.504667  0.010239326   0.12988689    0.1751585 -0.045271612 
  540000    58.416817    86.473564  0.010239326   0.12984019   0.17386798 -0.044027793 
  541000    57.368982    86.622439  0.010239326   0.13006372   0.17074927  -0.04068555 
  542000    58.789579    86.551554  0.010239326   0.12995729   0.17497744 -0.045020156 
  543000    58.391104    86.500762  0.010239326   0.12988102   0.17379145 -0.043910424 
  544000    59.268654    86.406272  0.010239326   0.12973915   0.17640333 -0.046664186 
  545000    59.454149    86.509116  0.010239326   0.12989357   0.17695543 -0.047061861 
  546000    59.694107     86.33193  0.010239326   0.12962752   0.17766962 -0.048042099 
  547000    58.890191    86.551977  0.010239326   0.12995792    0.1752769 -0.045318975 
  548000    58.740676    86.506115  0.010239326   0.12988906   0.17483189 -0.044942829 
  549000     58.89871    86.443586  0.010239326   0.12979517   0.17530225 -0.045507079 
  550000    58.966705    86.274662  0.010239326   0.12954153   0.17550463 -0.045963095 
  551000    59.548511    86.370678  0.010239326    0.1296857   0.17723628 -0.047550578 
  552000     59.61245    86.379102  0.010239326   0.12969835   0.17742658 -0.047728231 
  553000    58.998985    86.458466  0.010239326   0.12981752   0.17560071  -0.04578319 
  554000    59.062767    86.398433  0.010239326   0.12972738   0.17579054 -0.046063165 
  555000    60.484263    86.408003  0.010239326   0.12974175   0.18002139 -0.050279645 
  556000    59.769734    86.481293  0.010239326   0.12985179   0.17789471 -0.048042922 
  557000    59.346827    86.425781  0.010239326   0.12976844     0.176636 -0.046867561 
  558000     58.02405    86.443108  0.010239326   0.12979446   0.17269897 -0.042904516 
  559000    59.220137    86.448004  0.010239326   0.12980181   0.17625893  -0.04645712 
  560000    59.629731    86.428093  0.010239326   0.12977191   0.17747802 -0.047706107 
  561000    59.488071    86.569589  0.010239326   0.12998437   0.17705639 -0.047072024 
  562000    59.233282    86.299216  0.010239326    0.1295784   0.17629805  -0.04671965 
  563000    58.957122    86.619492  0.010239326    0.1300593   0.17547611 -0.045416811 
  564000    59.822908    86.445594  0.010239326   0.12979819   0.17805298 -0.048254788 
  565000    59.958766    86.408849  0.010239326   0.12974302   0.17845733 -0.048714319 
  566000    57.863516    86.462063  0.010239326   0.12982292   0.17222117 -0.042398254 
  567000    60.438158    86.349799  0.010239326   0.12965435   0.17988417 -0.050229814 
  568000    58.979586    86.440089  0.010239326   0.12978992   0.17554297 -0.045753047 
  569000     60.38971    86.322294  0.010239326   0.12961305   0.17973997 -0.050126915 
  570000    59.798021    86.471007  0.010239326   0.12983635    0.1779789 -0.048142558 
  571000    59.498729    86.468559  0.010239326   0.12983267   0.17708811  -0.04725544 
  572000    58.981334    86.493657  0.010239326   0.12987036   0.17554817 -0.045677814 
  573000    58.455084    86.522933  0.010239326   0.12991431   0.17398187 -0.044067561 
  574000    58.868402     86.47222  0.010239326   0.12983817   0.17521205 -0.045373881 
  575000     58.10038     86.51354  0.010239326   0.12990021   0.17292616 -0.043025948 
  576000    59.614784    86.506128  0.010239326   0.12988908   0.17743353  -0.04754445 
  577000    58.077655     86.48358  0.010239326   0.12985523   0.17285852 -0.043003293 
  578000    57.684914    86.504019  0.010239326   0.12988592   0.17168959 -0.041803676 
  579000    58.325873    86.456485  0.010239326   0.12981454    0.1735973 -0.043782758 
  580000    58.818642    86.288618  0.010239326   0.12956249   0.17506394 -0.045501455 
  581000    59.615545    86.338977  0.010239326    0.1296381    0.1774358 -0.047797691 
  582000     58.64299     86.43228  0.010239326    0.1297782   0.17454115 -0.044762946 
  583000     58.58598    86.514096  0.010239326   0.12990105   0.17437146 -0.044470419 
  584000    59.269599    86.491846  0.010239326   0.12986764   0.17640614 -0.046538506 
  585000    59.340043    86.440669  0.010239326   0.12979079   0.17661581 -0.046825016 
  586000    59.076692    86.496074  0.010239326   0.12987398   0.17583199 -0.045958005 
  587000    58.913303    86.436488  0.010239326   0.12978452   0.17534569 -0.045561172 
  588000    59.172928    86.482874  0.010239326   0.12985416   0.17611842 -0.046264255 
  589000    58.285563      86.5891  0.010239326   0.13001366   0.17347732 -0.043463659 
  590000    58.495378    86.467848  0.010239326    0.1298316    0.1741018 -0.044270199 
  591000    58.424457    86.487837  0.010239326   0.12986162   0.17389072 -0.044029101 
  592000    58.233054     86.62025  0.010239326   0.13006044   0.17332104 -0.043260603 
  593000    58.617537    86.493521  0.010239326   0.12987015   0.17446539 -0.044595236 
  594000    57.872918    86.477023  0.010239326   0.12984538   0.17224915 -0.042403774 
  595000    58.837481    86.447491  0.010239326   0.12980104   0.17512002 -0.045318977 
  596000    57.778343    86.543902  0.010239326    0.1299458   0.17196767 -0.042021869 
  597000    57.906127    86.440861  0.010239326   0.12979108   0.17234799 -0.042556912 
  598000    57.856823    86.593007  0.010239326   0.13001953   0.17220125 -0.042181719 
  599000    59.406047    86.214856  0.010239326   0.12945174   0.17681226 -0.047360524 
  600000    58.040539    86.396797  0.010239326   0.12972492   0.17274805  -0.04302313 
  601000      58.9084    86.409862  0.010239326   0.12974454    0.1753311 -0.045586558 
  602000    59.065697    86.349124  0.010239326   0.12965334   0.17579926 -0.046145923 
  603000    58.138045    86.424868  0.010239326   0.12976707   0.17303826 -0.043271191 
  604000    58.024069    86.440904  0.010239326   0.12979115   0.17269903 -0.042907885 
  605000     58.70863    86.452776  0.010239326   0.12980897   0.17473651  -0.04492754 
  606000    57.932782    86.555062  0.010239326   0.12996256   0.17242733 -0.042464774 
  607000    59.248287    86.368882  0.010239326   0.12968301   0.17634271 -0.046659706 
  608000    59.599393    86.359525  0.010239326   0.12966896   0.17738772 -0.047718763 
  609000    58.838646    86.368197  0.010239326   0.12968198   0.17512348 -0.045441507 
  610000    59.069752    86.392248  0.010239326   0.12971809   0.17581133 -0.046093242 
  611000    59.606682    86.390597  0.010239326   0.12971561   0.17740942 -0.047693806 
  612000    59.631905     86.28856  0.010239326    0.1295624   0.17748449 -0.047922084 
  613000    58.873613    86.391333  0.010239326   0.12971672   0.17522756  -0.04551084 
  614000     60.63816    86.175445  0.010239326   0.12939256   0.18047944  -0.05108688 
  615000      59.7256    86.261687  0.010239326   0.12952205   0.17776336 -0.048241304 
  616000    59.995453    86.288246  0.010239326   0.12956193   0.17856653 -0.049004598 
  617000    60.444171     86.22037  0.010239326   0.12946001   0.17990206 -0.050442048 
  618000    59.840639    86.292293  0.010239326   0.12956801   0.17810575 -0.048537743 
  619000    58.573801    86.440985  0.010239326   0.12979127   0.17433522 -0.044543947 
  620000    59.890121    86.264721  0.010239326   0.12952661   0.17825303 -0.048726418 
  621000    58.951256    86.221649  0.010239326   0.12946193   0.17545865 -0.045996715 
  622000    58.556172     86.33016  0.010239326   0.12962487   0.17428275 -0.044657883 
  623000    58.706227    86.394353  0.010239326   0.12972125   0.17472936 -0.045008109 
  624000    58.677455    86.358878  0.010239326   0.12966798   0.17464373 -0.044975741 
  625000    60.337576    86.281297  0.010239326    0.1295515    0.1795848 -0.050033304 
  626000    59.186156    86.310024  0.010239326   0.12959463   0.17615779 -0.046563159 
  627000    59.829633    86.285356  0.010239326   0.12955759   0.17807299 -0.048515403 
  628000    60.036713    86.256131  0.010239326   0.12951371   0.17868933 -0.049175622 
  629000    58.681208     86.48384  0.010239326   0.12985562   0.17465489 -0.044799279 
  630000     60.49659    86.306691  0.010239326   0.12958963   0.18005808 -0.050468453 
  631000    59.321622    86.388626  0.010239326   0.12971265   0.17656098 -0.046848331 
  632000    59.736686     86.35779  0.010239326   0.12966635   0.17779635     -0.04813 
  633000    59.157674    86.306979  0.010239326   0.12959006   0.17607302 -0.046482959 
  634000    60.064298    86.246104  0.010239326   0.12949866   0.17877143 -0.049272778 
  635000    60.199204    86.178409  0.010239326   0.12939701   0.17917296 -0.049775948 
  636000    59.038356    86.392264  0.010239326   0.12971811   0.17571789 -0.045999773 
  637000    60.130747     86.27335  0.010239326   0.12953956   0.17896921 -0.049429643 
  638000     60.51903    86.256384  0.010239326   0.12951409   0.18012487 -0.050610778 
  639000    58.737693    86.375291  0.010239326   0.12969263   0.17482301 -0.045130383 
  640000    60.168411    86.232903  0.010239326   0.12947883   0.17908131 -0.049602477 
  641000    59.754328    86.373789  0.010239326   0.12969037   0.17784886 -0.048158485 
  642000    59.772388    86.280258  0.010239326   0.12954994   0.17790261 -0.048352676 
  643000    59.502198    86.382044  0.010239326   0.12970277   0.17709844 -0.047395668 
  644000    58.715719    86.407785  0.010239326   0.12974142   0.17475761 -0.045016194 
  645000    60.140398    86.202738  0.010239326   0.12943354   0.17899793 -0.049564392 
  646000       60.788    86.340378  0.010239326   0.12964021   0.18092541 -0.051285204 
  647000    60.035682    86.380156  0.010239326   0.12969993   0.17868626  -0.04898633 
  648000    61.049517    86.336539  0.010239326   0.12963444   0.18170378 -0.052069332 
  649000    60.968036    86.368419  0.010239326   0.12968231   0.18146126 -0.051778951 
  650000    60.715645    86.273928  0.010239326   0.12954043   0.18071006 -0.051169629 
  651000    62.293522    86.116459  0.010239326   0.12930399   0.18540635 -0.056102358 
  652000     61.32881    86.249888  0.010239326   0.12950434   0.18253504 -0.053030708 
  653000    61.509143     86.23228  0.010239326    0.1294779   0.18307177 -0.053593878 
  654000    61.927835    86.192432  0.010239326   0.12941807   0.18431794 -0.054899876 
  655000    61.239508    86.239788  0.010239326   0.12948917   0.18226925  -0.05278008 
  656000    61.335574    86.293959  0.010239326   0.12957051   0.18255518 -0.052984667 
  657000    60.393671    86.323586  0.010239326   0.12961499   0.17975176 -0.050136766 
  658000    61.021551    86.195997  0.010239326   0.12942342   0.18162054 -0.052197119 
  659000    60.488114    86.167568  0.010239326   0.12938073   0.18003285  -0.05065212 
  660000    60.657037    86.103757  0.010239326   0.12928492   0.18053562 -0.051250702 
  661000     60.62303    86.225836  0.010239326   0.12946822   0.18043441 -0.050966185 
  662000    60.743517    86.241362  0.010239326   0.12949153   0.18079302 -0.051301483 
  663000    61.548139    86.008473  0.010239326   0.12914185   0.18318784 -0.054045991 
  664000    60.776941    86.115259  0.010239326   0.12930219    0.1808925 -0.051590307 
  665000    60.835553    86.166737  0.010239326   0.12937948   0.18106695 -0.051687464 
  666000    61.711933    86.071311  0.010239326    0.1292362   0.18367535 -0.054439144 
  667000    62.501767     85.93312  0.010239326   0.12902871   0.18602616 -0.056997448 
  668000    62.138223    86.068321  0.010239326   0.12923171   0.18494413 -0.055712413 
  669000     62.58182    86.168726  0.010239326   0.12938247   0.18626442  -0.05688195 
  670000    61.582399    86.059035  0.010239326   0.12921777   0.18328981 -0.054072041 
  671000    62.187192    86.010524  0.010239326   0.12914493   0.18508988 -0.055944946 
  672000    62.978096    85.958337  0.010239326   0.12906657   0.18744387   -0.0583773 
  673000    62.458982    86.046564  0.010239326   0.12919904   0.18589881  -0.05669977 
  674000    61.357985    86.030844  0.010239326   0.12917544   0.18262188 -0.053446438 
  675000    61.554013    86.053252  0.010239326   0.12920909   0.18320532 -0.053996236 
  676000    62.581547    85.908915  0.010239326   0.12899236   0.18626361 -0.057271244 
  677000    61.328035    86.137445  0.010239326    0.1293355   0.18253274 -0.053197235 
  678000    61.752774    86.017213  0.010239326   0.12915497    0.1837969 -0.054641928 
  679000     62.06152    85.954934  0.010239326   0.12906146   0.18471584 -0.055654373 
  680000    61.724532    86.095234  0.010239326   0.12927212   0.18371285 -0.054440722 
  681000    62.096176    85.978009  0.010239326   0.12909611   0.18481898 -0.055722874 
  682000    62.036575    85.924566  0.010239326   0.12901587   0.18464159 -0.055625724 
  683000    61.654571    85.870284  0.010239326   0.12893436   0.18350462 -0.054570258 
  684000    60.131112    86.047013  0.010239326   0.12919972   0.17897029 -0.049770574 
  685000    62.481673    85.843788  0.010239326   0.12889458   0.18596635 -0.057071773 
  686000    61.166752       85.949  0.010239326   0.12905255   0.18205271 -0.053000153 
  687000    61.963768    85.874354  0.010239326   0.12894047   0.18442489  -0.05548442 
  688000    60.899936    86.062417  0.010239326   0.12922285   0.18125857 -0.052035725 
  689000    60.129252     86.17366  0.010239326   0.12938988   0.17896476 -0.049574878 
  690000     59.72462    86.259966  0.010239326   0.12951947   0.17776044 -0.048240969 
  691000     60.89798    86.210408  0.010239326   0.12944506   0.18125275 -0.051807695 
  692000    61.287923    86.091106  0.010239326   0.12926592   0.18241335 -0.053147428 
  693000    61.003443    86.246251  0.010239326   0.12949887   0.18156664 -0.052067768 
  694000    63.167065    85.906531  0.010239326   0.12898878   0.18800631 -0.059017522 
  695000    61.573692    86.036338  0.010239326   0.12918369   0.18326389 -0.054080204 
  696000    61.573462    85.991544  0.010239326   0.12911643   0.18326321 -0.054146776 
  697000    62.940423    85.912717  0.010239326   0.12899807   0.18733174  -0.05833367 
  698000    64.809608    85.808088  0.010239326   0.12884097   0.19289506 -0.064054091 
  699000    63.645928    86.011614  0.010239326   0.12914657   0.18943156 -0.060284996 
  700000     63.50562    85.938987  0.010239326   0.12903752   0.18901396 -0.059976441 
  701000    62.556856    85.938574  0.010239326    0.1290369   0.18619012 -0.057153222 
  702000     64.02795    85.848081  0.010239326   0.12890102   0.19056859 -0.061667567 
  703000    64.427646    85.881299  0.010239326    0.1289509   0.19175822 -0.062807317 
  704000    63.483616    85.927097  0.010239326   0.12901967   0.18894847 -0.059928802 
  705000    63.373167    85.795867  0.010239326   0.12882262   0.18861973 -0.059797112 
  706000    63.087648    85.834917  0.010239326   0.12888126   0.18776994 -0.058888678 
  707000    62.700961      86.0179  0.010239326   0.12915601   0.18661902 -0.057463019 
  708000    61.905523    85.959437  0.010239326   0.12906822   0.18425153 -0.055183311 
  709000    61.645618    85.952834  0.010239326   0.12905831   0.18347797 -0.054419663 
  710000    64.322021    85.664798  0.010239326   0.12862582   0.19144384 -0.062818019 
  711000    65.111533    85.727616  0.010239326   0.12872014   0.19379369 -0.065073548 
  712000    62.693325    85.863932  0.010239326   0.12892482    0.1865963 -0.057671474 
  713000    63.397254    85.872197  0.010239326   0.12893723   0.18869143 -0.059754193 
  714000    64.405297    86.031593  0.010239326   0.12917657    0.1916917 -0.062515133 
  715000     63.56954    85.992985  0.010239326    0.1291186   0.18920421 -0.060085609 
  716000    63.583878    85.849199  0.010239326    0.1289027   0.18924688 -0.060344178 
  717000    63.973187    85.750377  0.010239326   0.12875432   0.19040559 -0.061651274 
  718000    63.256491    85.875366  0.010239326   0.12894199   0.18827247 -0.059330476 
  719000    64.178988    85.805663  0.010239326   0.12883733   0.19101813 -0.062180795 
  720000    61.371389    86.046626  0.010239326   0.12919914   0.18266177 -0.053462636 
  721000    63.595896    85.837737  0.010239326   0.12888549   0.18928265 -0.060397158 
  722000    62.136422    85.949672  0.010239326   0.12905356   0.18493877 -0.055885206 
  723000    63.381179    86.012108  0.010239326   0.12914731   0.18864358 -0.059496271 
  724000    62.587145    86.013277  0.010239326   0.12914906   0.18628027 -0.057131205 
  725000    63.215387    85.931988  0.010239326   0.12902701   0.18815013  -0.05912312 
  726000     62.54277    85.958309  0.010239326   0.12906653   0.18614819 -0.057081664 
  727000    62.610196    85.983578  0.010239326   0.12910447   0.18634888 -0.057244405 
  728000     62.72506    85.882167  0.010239326    0.1289522   0.18669075 -0.057738548 
  729000    62.623289    85.928163  0.010239326   0.12902127   0.18638785 -0.057366579 
  730000    63.375694    85.853934  0.010239326   0.12890981   0.18862726 -0.059717445 
  731000    63.243661    85.888706  0.010239326   0.12896202   0.18823428  -0.05927226 
  732000    63.744011    85.915826  0.010239326   0.12900274   0.18972349 -0.060720749 
  733000    63.201762     85.92853  0.010239326   0.12902182   0.18810958 -0.059087759 
  734000    61.838548    85.997848  0.010239326    0.1291259    0.1840522 -0.054926297 
  735000    63.170369    85.931497  0.010239326   0.12902627   0.18801614 -0.058989867 
  736000    62.721985    85.989242  0.010239326   0.12911298    0.1866816 -0.057568624 
  737000    61.575741    86.020708  0.010239326   0.12916022   0.18326999 -0.054109773 
  738000    62.042716    86.016978  0.010239326   0.12915462   0.18465987 -0.055505247 
  739000    62.611074    85.901178  0.010239326   0.12898075   0.18635149 -0.057370743 
  740000    62.045491    85.989236  0.010239326   0.12911297   0.18466813  -0.05555516 
  741000    62.695256    85.930223  0.010239326   0.12902436   0.18660204 -0.057577686 
  742000    62.610706    85.907621  0.010239326   0.12899042    0.1863504 -0.057359974 
  743000    61.744049    86.086536  0.010239326   0.12925906   0.18377094 -0.054511873 
  744000    63.426701    85.979025  0.010239326   0.12909763   0.18877907 -0.059681434 
  745000    61.913224     85.95295  0.010239326   0.12905848   0.18427445 -0.055215972 
  746000    61.517719    86.047113  0.010239326   0.12919987    0.1830973  -0.05389743 
  747000    62.402014    86.002195  0.010239326   0.12913242   0.18572926 -0.056596833 
  748000    62.844106    86.056116  0.010239326   0.12921339   0.18704507 -0.057831683 
  749000    63.049987     85.95974  0.010239326   0.12906868   0.18765784 -0.058589164 
  750000    62.529149    85.969853  0.010239326   0.12908386   0.18610765 -0.057023791 
  751000    62.387672    85.999528  0.010239326   0.12912842   0.18568657 -0.056558152 
  752000    62.775682    85.970118  0.010239326   0.12908426   0.18684142 -0.057757158 
  753000    62.910125    85.941218  0.010239326   0.12904087   0.18724157 -0.058200699 
  754000    62.848301     85.98762  0.010239326   0.12911054   0.18705756 -0.057947016 
  755000    62.711147    85.945318  0.010239326   0.12904702   0.18664934 -0.057602318 
  756000      62.9331    85.920236  0.010239326   0.12900936   0.18730995 -0.058300584 
  757000     63.22186    85.917093  0.010239326   0.12900464   0.18816939 -0.059164751 
  758000    63.478892    85.846348  0.010239326   0.12889842   0.18893441 -0.060035985 
  759000    62.212559    85.985557  0.010239326   0.12910744   0.18516538 -0.056057933 
  760000    64.250901    85.869587  0.010239326   0.12893331   0.19123216 -0.062298849 
  761000    63.947707    85.847555  0.010239326   0.12890023   0.19032976 -0.061429523 
  762000     62.39573    85.982379  0.010239326   0.12910267   0.18571056 -0.056607884 
  763000     62.68967    85.931706  0.010239326   0.12902659   0.18658542 -0.057558832 
  764000    63.352829    85.946949  0.010239326   0.12904947    0.1885592  -0.05950973 
  765000    64.462601    85.832904  0.010239326   0.12887823   0.19186225  -0.06298402 
  766000    63.245128    85.814941  0.010239326   0.12885126   0.18823865 -0.059387385 
  767000    63.943898    85.846981  0.010239326   0.12889937   0.19031842 -0.061419051 
  768000    63.192109    85.909899  0.010239326   0.12899384   0.18808084 -0.059087001 
  769000    63.732215    85.851717  0.010239326   0.12890648   0.18968838   -0.0607819 
  770000    62.728871    85.948181  0.010239326   0.12905132   0.18670209  -0.05765077 
  771000    62.693043    86.035536  0.010239326   0.12918249   0.18659546 -0.057412972 
  772000    63.272782     85.88298  0.010239326   0.12895342   0.18832095 -0.059367531 
  773000    63.809341     85.95315  0.010239326   0.12905878   0.18991793  -0.06085915 
  774000    62.430445    86.005017  0.010239326   0.12913666   0.18581388 -0.056677217 
  775000    62.424327    85.819797  0.010239326   0.12885855   0.18579567 -0.056937116 
  776000    62.853097    85.954194  0.010239326   0.12906035   0.18707183 -0.058011482 
  777000    62.078259    85.861548  0.010239326   0.12892124   0.18476566 -0.055844413 
  778000    62.042438     86.08734  0.010239326   0.12926027   0.18465904 -0.055398769 
  779000    62.878703    85.858967  0.010239326   0.12891737   0.18714804 -0.058230676 
  780000    62.396305    85.792346  0.010239326   0.12881734   0.18571227  -0.05689493 
  781000    62.340935    85.949065  0.010239326   0.12905265   0.18554747 -0.056494818 
  782000     62.39634    85.852799  0.010239326   0.12890811   0.18571237 -0.056804264 
  783000    62.894515    85.884354  0.010239326   0.12895549   0.18719511  -0.05823962 
  784000    64.105007    85.844824  0.010239326   0.12889613   0.19079793 -0.061901802 
  785000    61.826429    85.975876  0.010239326   0.12909291   0.18401613 -0.054923219 
  786000    61.626901    86.100765  0.010239326   0.12928043   0.18342226 -0.054141834 
  787000    62.007874     85.94798  0.010239326   0.12905102   0.18455617 -0.055505144 
  788000    63.068924      85.7477  0.010239326    0.1287503    0.1877142 -0.058963904 
  789000    62.882709    85.869451  0.010239326   0.12893311   0.18715997 -0.058226859 
  790000    62.155384    86.043906  0.010239326   0.12919505    0.1849952  -0.05580015 
  791000    63.263079    85.869509  0.010239326    0.1289332   0.18829207 -0.059358878 
  792000    62.591687    85.921669  0.010239326   0.12901151   0.18629379 -0.057282275 
  793000     63.38735     85.83116  0.010239326   0.12887561   0.18866195 -0.059786333 
  794000    65.139969    85.735818  0.010239326   0.12873246   0.19387833 -0.065145869 
  795000    63.680749    85.698102  0.010239326   0.12867583    0.1895352 -0.060859372 
  796000    63.072842    85.804276  0.010239326   0.12883525   0.18772587 -0.058890618 
  797000    63.508291    85.896112  0.010239326   0.12897314   0.18902191 -0.060048767 
  798000    61.973453    86.016905  0.010239326   0.12915451   0.18445372 -0.055299206 
  799000    64.123175    85.715232  0.010239326   0.12870155   0.19085201 -0.062150459 
  800000    62.289558    85.905585  0.010239326   0.12898737   0.18539455 -0.056407187 
  801000    62.590616    85.945587  0.010239326   0.12904743    0.1862906 -0.057243174 
  802000    63.108527    85.883146  0.010239326   0.12895367   0.18783208 -0.058878404 
  803000    63.274545     85.77013  0.010239326   0.12878398    0.1883262 -0.059542224 
  804000    63.510935    85.914574  0.010239326   0.12900086   0.18902978 -0.060028918 
  805000    62.716978    85.912985  0.010239326   0.12899848    0.1866667 -0.057668221 
  806000    62.778717    85.885202  0.010239326   0.12895676   0.18685045 -0.057893693 
  807000    62.026409     85.88547  0.010239326   0.12895716   0.18461133  -0.05565417 
  808000    62.386365    85.849381  0.010239326   0.12890297   0.18568268 -0.056779706 
  809000    62.337929    85.958618  0.010239326   0.12906699   0.18553852 -0.056471527 
  810000     62.02859    85.758626  0.010239326   0.12876671   0.18461782 -0.055851118 
  811000    61.806362    85.953937  0.010239326   0.12905997    0.1839564 -0.054896432 
  812000    61.753611    85.918321  0.010239326   0.12900649   0.18379939 -0.054792907 
  813000    62.035626    85.945384  0.010239326   0.12904712   0.18463876 -0.055591642 
  814000    61.314364    85.811041  0.010239326   0.12884541   0.18249205 -0.053646641 
  815000     62.48298    85.849548  0.010239326   0.12890323   0.18597024 -0.057067016 
  816000    62.890395    85.724575  0.010239326   0.12871558   0.18718284 -0.058467267 
  817000    62.308587    85.736848  0.010239326   0.12873401   0.18545119 -0.056717182 
  818000    62.040319     85.85953  0.010239326   0.12891821   0.18465273 -0.055734522 
  819000    62.131816    85.728726  0.010239326   0.12872181   0.18492506 -0.056203248 
  820000    61.488164    85.972373  0.010239326   0.12908765   0.18300933 -0.053921686 
  821000    63.401663    85.794318  0.010239326    0.1288203   0.18870455  -0.05988425 
  822000    63.303939    85.667074  0.010239326   0.12862924   0.18841369 -0.059784448 
  823000    63.009923    85.811472  0.010239326   0.12884605    0.1875386 -0.058692544 
  824000    63.409484    85.794222  0.010239326   0.12882015   0.18872783 -0.059907672 
  825000    62.894472    85.849267  0.010239326    0.1289028   0.18719498 -0.058292174 
  826000     63.79352    85.754461  0.010239326   0.12876045   0.18987085 -0.061110394 
  827000    63.843117    85.700341  0.010239326   0.12867919   0.19001846 -0.061339273 
  828000    61.616781    85.884666  0.010239326   0.12895595   0.18339214 -0.054436187 
  829000    60.974294    85.956156  0.010239326    0.1290633   0.18147989 -0.052416588 
  830000     63.28162    85.816423  0.010239326   0.12885349   0.18834726 -0.059493773 
  831000    63.187914    85.927729  0.010239326   0.12902061   0.18806836 -0.059047747 
  832000    62.782248    85.872548  0.010239326   0.12893776   0.18686096 -0.057923201 
  833000    62.342457    85.923125  0.010239326    0.1290137     0.185552 -0.056538296 
  834000      61.8668    86.003394  0.010239326   0.12913422   0.18413628 -0.055002058 
  835000    62.430236    85.950654  0.010239326   0.12905504   0.18581326  -0.05675822 
  836000    61.585845    86.071235  0.010239326   0.12923609   0.18330007 -0.054063979 
  837000      61.8928    85.983632  0.010239326   0.12910455   0.18421367 -0.055109114 
  838000    62.794364    85.873585  0.010239326   0.12893932   0.18689702 -0.057957706 
  839000    63.254769    85.856048  0.010239326   0.12891298   0.18826734 -0.059354357 
  840000    63.258141    85.882766  0.010239326    0.1289531   0.18827738 -0.059324278 
  841000    62.966251    85.920973  0.010239326   0.12901047   0.18740862 -0.058398147 
  842000    63.347128    85.940255  0.010239326   0.12903942   0.18854223 -0.059502811 
  843000    62.830621    85.866188  0.010239326   0.12892821   0.18700494 -0.058076727 
  844000    63.677668    85.768812  0.010239326     0.128782   0.18952603  -0.06074403 
  845000    63.278249    85.777246  0.010239326   0.12879466   0.18833723 -0.059542561 
  846000    64.720757     85.63793  0.010239326   0.12858548   0.19263061 -0.064045133 
  847000    62.873679    85.791807  0.010239326   0.12881653   0.18713309 -0.058316563 
  848000    64.398478    85.646529  0.010239326   0.12859839    0.1916714 -0.063073012 
  849000    63.685009    85.708547  0.010239326   0.12869151   0.18954788 -0.060856368 
  850000    63.839113    85.766722  0.010239326   0.12877886   0.19000655 -0.061227683 
  851000    64.159297    85.655122  0.010239326   0.12861129   0.19095952 -0.062348225 
  852000    63.416199     85.74734  0.010239326   0.12874976   0.18874781 -0.059998053 
  853000    63.693005    85.699225  0.010239326   0.12867751   0.18957168 -0.060894166 
  854000    63.221266    85.821748  0.010239326   0.12886148   0.18816763 -0.059306142 
  855000    62.986101    85.869357  0.010239326   0.12893297    0.1874677 -0.058534727 
  856000    64.845994    85.713111  0.010239326   0.12869837   0.19300336 -0.064304995 
[...]
 4806000    67.172596    85.241688  0.010239326   0.12799052   0.19992811 -0.071937584 
 4807000    67.068553     85.16396  0.010239326   0.12787381   0.19961844 -0.071744625 
 4808000    66.849085    85.286631  0.010239326   0.12805801   0.19896523 -0.070907224 
 4809000    66.447056    85.359909  0.010239326   0.12816803   0.19776866 -0.069600626 
 4810000    67.271093    85.249568  0.010239326   0.12800235   0.20022126  -0.07221891 
 4811000    66.449099    85.351449  0.010239326   0.12815533   0.19777474 -0.069619408 
 4812000    66.965406    85.361016  0.010239326   0.12816969   0.19931144 -0.071141745 
 4813000    66.298089    85.279848  0.010239326   0.12804782   0.19732528 -0.069277461 
 4814000    66.691463    85.219724  0.010239326   0.12795754   0.19849609  -0.07053855 
 4815000    66.084955    85.373399  0.010239326   0.12818829   0.19669092 -0.068502636 
 4816000    67.579455    85.243383  0.010239326   0.12799307   0.20113905 -0.073145984 
 4817000    66.033454    85.354325  0.010239326   0.12815965   0.19653764 -0.068377992 
 4818000    68.072965    85.112457  0.010239326   0.12779648   0.20260791 -0.074811423 
 4819000    67.588353    85.243523  0.010239326   0.12799328   0.20116554 -0.073172259 
 4820000    66.788439    85.213154  0.010239326   0.12794768   0.19878473 -0.070837048 
 4821000    67.212979    85.207954  0.010239326   0.12793987    0.2000483  -0.07210843 
 4822000    67.050902    85.164819  0.010239326    0.1278751    0.1995659 -0.071690801 
 4823000    65.893579     85.45015  0.010239326   0.12830353   0.19612132 -0.067817795 
 4824000    68.112414     85.14363  0.010239326   0.12784329   0.20272532  -0.07488203 
 4825000    66.985263    85.276614  0.010239326   0.12804296   0.19937054 -0.071327577 
 4826000    67.414412    85.198805  0.010239326   0.12792613   0.20064783 -0.072721698 
 4827000    67.958161     85.08414  0.010239326   0.12775396   0.20226621 -0.074512247 
 4828000    67.015415    85.358873  0.010239326   0.12816648   0.19946028 -0.071293807 
 4829000    66.224572    85.386884  0.010239326   0.12820854   0.19710647 -0.068897935 
 4830000    65.933978    85.422617  0.010239326   0.12826219   0.19624156 -0.067979375 
 4831000    65.235435    85.492642  0.010239326   0.12836733   0.19416247 -0.065795137 
 4832000    66.614193    85.366611  0.010239326    0.1281781   0.19826611 -0.070088017 
 4833000    65.884852    85.438231  0.010239326   0.12828563   0.19609535 -0.067809714 
 4834000    66.360068    85.449212  0.010239326   0.12830212   0.19750975 -0.069207632 
 4835000    65.286252     85.57448  0.010239326   0.12849021   0.19431371 -0.065823504 
 4836000    65.945932     85.55967  0.010239326   0.12846797   0.19627714 -0.067809171 
 4837000    67.323514    85.359352  0.010239326    0.1281672   0.20037729 -0.072210094 
 4838000    67.133496    85.331722  0.010239326   0.12812571   0.19981173 -0.071686021 
 4839000    65.960183    85.397911  0.010239326   0.12822509   0.19631956 -0.068094469 
 4840000    66.862468    85.362794  0.010239326   0.12817236   0.19900506 -0.070832697 
 4841000     66.70529    85.360011  0.010239326   0.12816818   0.19853725  -0.07036906 
 4842000    67.292899    85.276765  0.010239326   0.12804319   0.20028617 -0.072242976 
 4843000    67.239976    85.282628  0.010239326   0.12805199   0.20012865 -0.072076655 
 4844000    67.545797    85.242827  0.010239326   0.12799223   0.20103888 -0.073046642 
 4845000    66.538703    85.293704  0.010239326   0.12806863   0.19804143 -0.069972802 
 4846000     65.77286    85.382177  0.010239326   0.12820147   0.19576202 -0.067560557 
 4847000    67.077326    85.276919  0.010239326   0.12804342   0.19964455 -0.071601127 
 4848000    67.098739    85.315623  0.010239326   0.12810154   0.19970828 -0.071606745 
 4849000    66.490599    85.241938  0.010239326    0.1279909   0.19789826 -0.069907357 
 4850000     66.46249    85.277315  0.010239326   0.12804402   0.19781459 -0.069770576 
 4851000    66.605283     85.42075  0.010239326   0.12825938   0.19823959 -0.069980209 
 4852000    67.388001    85.223945  0.010239326   0.12796388   0.20056922 -0.072605341 
 4853000    68.035548    85.209089  0.010239326   0.12794157   0.20249654 -0.074554963 
 4854000    66.676059    85.220495  0.010239326    0.1279587   0.19845025 -0.070491544 
 4855000      66.9115    85.297698  0.010239326   0.12807462     0.199151 -0.071076374 
 4856000     67.92979     85.13835  0.010239326   0.12783536   0.20218177 -0.074346409 
 4857000    67.597006    85.263811  0.010239326   0.12802374   0.20119129  -0.07316755 
 4858000    67.254314    85.242467  0.010239326   0.12799169   0.20017132 -0.072179632 
 4859000    66.312555    85.220005  0.010239326   0.12795797   0.19736834 -0.069410372 
 4860000    67.266248     85.05967  0.010239326   0.12771722   0.20020684 -0.072489623 
 4861000    65.887975    85.254841  0.010239326   0.12801027   0.19610464 -0.068094372 
 4862000    67.214911       85.338  0.010239326   0.12813513   0.20005405 -0.071918914 
 4863000    66.579682    85.233798  0.010239326   0.12797868    0.1981634  -0.07018472 
 4864000    66.580699    85.337859  0.010239326   0.12813492   0.19816642 -0.070031499 
 4865000    66.989322    85.261425  0.010239326   0.12802016   0.19938262 -0.071362464 
 4866000    65.328982    85.357374  0.010239326   0.12816423    0.1944409  -0.06627667 
 4867000    66.196152    85.339589  0.010239326   0.12813752   0.19702188 -0.068884362 
 4868000    67.065623    85.306744  0.010239326    0.1280882   0.19960972 -0.071521512 
 4869000    65.683903    85.431026  0.010239326   0.12827481   0.19549726 -0.067222444 
 4870000    66.640139    85.283679  0.010239326   0.12805357   0.19834334 -0.070289763 
 4871000    64.985909    85.463105  0.010239326   0.12832298   0.19341979 -0.065096813 
 4872000    67.344473    85.284106  0.010239326   0.12805421   0.20043967 -0.072385457 
 4873000    66.683567    85.326873  0.010239326   0.12811843   0.19847259 -0.070354164 
 4874000    65.583989     85.48419  0.010239326   0.12835464   0.19519988 -0.066845241 
 4875000    67.107332    85.426296  0.010239326   0.12826771   0.19973386 -0.071466147 
 4876000    65.621222    85.639814  0.010239326   0.12858831    0.1953107  -0.06672239 
 4877000    65.814378    85.657095  0.010239326   0.12861426   0.19588559 -0.067271338 
 4878000    67.206976    85.349154  0.010239326   0.12815188   0.20003043 -0.071878549 
 4879000    67.889004    85.347607  0.010239326   0.12814956   0.20206038 -0.073910816 
 4880000    65.983178    85.377593  0.010239326   0.12819458     0.196388 -0.068193416 
 4881000    68.235557    85.254498  0.010239326   0.12800976   0.20309183 -0.075082074 
 4882000    66.503653    85.419576  0.010239326   0.12825762   0.19793711 -0.069679486 
 4883000    65.771681     85.45946  0.010239326   0.12831751   0.19575851 -0.067441006 
 4884000    66.702315    85.358152  0.010239326   0.12816539   0.19852839 -0.070362998 
 4885000    66.313538    85.350848  0.010239326   0.12815443   0.19737126 -0.069216835 
 4886000    65.624351    85.351603  0.010239326   0.12815556   0.19532001 -0.067164449 
 4887000    65.923388    85.381251  0.010239326   0.12820008   0.19621004 -0.068009967 
 4888000    67.320831    85.281558  0.010239326   0.12805039    0.2003693 -0.072318916 
 4889000    66.667752    85.439615  0.010239326   0.12828771   0.19842552  -0.07013781 
 4890000    67.992539    85.357186  0.010239326   0.12816394   0.20236853 -0.074204586 
 4891000    66.530531    85.432758  0.010239326   0.12827742    0.1980171 -0.069739689 
 4892000    65.829455      85.3436  0.010239326   0.12814354   0.19593047 -0.067786926 
 4893000    65.186651    85.472735  0.010239326   0.12833744   0.19401727 -0.065679829 
 4894000    66.390027    85.370508  0.010239326   0.12818395   0.19759892 -0.069414972 
 4895000    65.908189    85.350326  0.010239326   0.12815364   0.19616481 -0.068011165 
 4896000     65.79794    85.240895  0.010239326   0.12798933   0.19583667 -0.067847338 
 4897000     65.70329     85.39268  0.010239326   0.12821724   0.19555496 -0.067337722 
 4898000    65.300473    85.404381  0.010239326   0.12823481   0.19435604 -0.066121236 
 4899000    65.939611    85.469667  0.010239326   0.12833283   0.19625833 -0.067925496 
 4900000    65.109167     85.51219  0.010239326   0.12839668   0.19378665  -0.06538997 
 4901000     65.24486    85.518793  0.010239326    0.1284066   0.19419052 -0.065783924 
 4902000    65.540686    85.465681  0.010239326   0.12832685   0.19507099 -0.066744145 
 4903000    66.785137    85.331999  0.010239326   0.12812613    0.1987749 -0.070648774 
 4904000    64.788541    85.328473  0.010239326   0.12812083   0.19283236  -0.06471153 
 4905000    64.903208    85.421529  0.010239326   0.12826055   0.19317365 -0.064913094 
 4906000    64.428546    85.506327  0.010239326   0.12838788   0.19176089 -0.063373015 
 4907000    65.007482    85.278957  0.010239326   0.12804648     0.193484  -0.06543752 
 4908000    65.874355    85.405058  0.010239326   0.12823582   0.19606411 -0.067828282 
 4909000     65.21566    85.493857  0.010239326   0.12836915   0.19410361 -0.065734457 
 4910000      65.1246    85.446572  0.010239326   0.12829816   0.19383258 -0.065534427 
 4911000    64.728483    85.441869  0.010239326    0.1282911   0.19265361 -0.064362514 
 4912000    65.608125    85.457387  0.010239326    0.1283144   0.19527172  -0.06695732 
 4913000    63.408267    85.608819  0.010239326   0.12854177    0.1887242 -0.060182435 
 4914000    63.734323    85.657793  0.010239326    0.1286153   0.18969466 -0.061079352 
 4915000    64.922622    85.565655  0.010239326   0.12847696   0.19323143 -0.064754471 
 4916000    65.617922     85.53186  0.010239326   0.12842622   0.19530088 -0.066874659 
 4917000    64.871851    85.538282  0.010239326   0.12843586   0.19308032 -0.064644461 
 4918000    63.989176    85.538227  0.010239326   0.12843578   0.19045318 -0.062017406 
 4919000    65.896933    85.355524  0.010239326   0.12816145   0.19613131 -0.067969859 
 4920000    64.485158    85.483029  0.010239326    0.1283529   0.19192939 -0.063576495 
 4921000    65.281569    85.502691  0.010239326   0.12838242   0.19429978 -0.065917358 
 4922000    66.112573    85.396955  0.010239326   0.12822366   0.19677312 -0.068549467 
 4923000    66.256787    85.461369  0.010239326   0.12832037   0.19720235 -0.068881978 
 4924000    67.094949    85.336168  0.010239326   0.12813238     0.199697 -0.071564617 
 4925000    64.641725    85.496911  0.010239326   0.12837374   0.19239539 -0.064021646 
 4926000    65.118574     85.34771  0.010239326   0.12814971   0.19381465 -0.065664934 
 4927000    64.412826    85.465613  0.010239326   0.12832675   0.19171411 -0.063387359 
 4928000    65.928838    85.522098  0.010239326   0.12841156   0.19622627 -0.067814707 
 4929000    65.719807     85.43674  0.010239326   0.12828339   0.19560412 -0.067320726 
 4930000    66.034258    85.419339  0.010239326   0.12825727   0.19654003 -0.068282765 
 4931000    66.870053    85.331191  0.010239326   0.12812491   0.19902764 -0.070902726 
 4932000    65.255775    85.493802  0.010239326   0.12836907     0.194223 -0.065853931 
 4933000    64.787214    85.501043  0.010239326   0.12837994   0.19282841 -0.064448467 
 4934000     65.58426    85.405324  0.010239326   0.12823622   0.19520069 -0.066964464 
 4935000    65.677641    85.400308  0.010239326   0.12822869   0.19547862  -0.06724993 
 4936000    65.103351    85.583351  0.010239326   0.12850353   0.19376934 -0.065265811 
 4937000    66.526075    85.337478  0.010239326   0.12813435   0.19800384 -0.069869493 
 4938000    65.734119     85.39483  0.010239326   0.12822046   0.19564672 -0.067426251 
 4939000    65.357535    85.486509  0.010239326   0.12835812   0.19452588 -0.066167756 
 4940000    66.536143     85.25468  0.010239326   0.12801003   0.19803381  -0.07002378 
 4941000    65.896158    85.193815  0.010239326   0.12791864     0.196129 -0.068210359 
 4942000    66.682034    85.135922  0.010239326   0.12783171   0.19846803 -0.070636314 
 4943000    66.497906     85.18249  0.010239326   0.12790164      0.19792 -0.070018365 
 4944000    66.937734    85.216321  0.010239326   0.12795243   0.19922908 -0.071276643 
 4945000    66.522801    85.312617  0.010239326   0.12809702    0.1979941 -0.069897077 
 4946000    66.277793     85.38816  0.010239326   0.12821045   0.19726487 -0.069054421 
 4947000    67.553863    85.149173  0.010239326   0.12785161   0.20106288 -0.073211273 
 4948000    65.566188    85.283487  0.010239326   0.12805328    0.1951469 -0.067093615 
 4949000    67.156894    85.184263  0.010239326    0.1279043   0.19988137 -0.071977071 
 4950000    67.121999     84.94209  0.010239326   0.12754068   0.19977751 -0.072236837 
 4951000    66.101892    85.285259  0.010239326   0.12805594   0.19674133 -0.068685386 
 4952000    68.206293    84.958861  0.010239326   0.12756586   0.20300473 -0.075438875 
 4953000    68.602921    84.961505  0.010239326   0.12756983   0.20418523 -0.076615403 
 4954000    66.677253    85.183134  0.010239326    0.1279026    0.1984538 -0.070551196 
 4955000    67.980197    85.169382  0.010239326   0.12788195    0.2023318 -0.074449841 
 4956000    68.481181    85.118922  0.010239326   0.12780619   0.20382289 -0.076016703 
 4957000    69.603535    85.101872  0.010239326   0.12778059   0.20716339 -0.079382803 
 4958000    68.566493    85.162496  0.010239326   0.12787162   0.20407681 -0.076205195 
 4959000    69.683916    85.024677  0.010239326   0.12766468   0.20740263 -0.079737954 
 4960000    69.011759    85.181997  0.010239326    0.1279009   0.20540207 -0.077501174 
 4961000    68.259536    85.161193  0.010239326   0.12786966    0.2031632 -0.075293542 
 4962000    68.052356    85.271358  0.010239326   0.12803507   0.20254657 -0.074511495 
 4963000    67.626948    85.364165  0.010239326   0.12817442   0.20128041 -0.073105987 
 4964000    69.139341    85.141624  0.010239326   0.12784028    0.2057818 -0.077941518 
 4965000    67.159531    85.291596  0.010239326   0.12806546   0.19988922  -0.07182376 
 4966000    67.968811    85.208036  0.010239326   0.12793999   0.20229791 -0.074357913 
 4967000    67.918376    85.129492  0.010239326   0.12782206    0.2021478 -0.074325737 
 4968000    66.822306    85.240239  0.010239326   0.12798835   0.19888552 -0.070897178 
 4969000    66.699907    85.283217  0.010239326   0.12805288   0.19852122 -0.070468346 
 4970000    68.921758    85.161391  0.010239326   0.12786996    0.2051342  -0.07726424 
 4971000    67.506494    85.327606  0.010239326   0.12811953    0.2009219  -0.07280237 
 4972000      69.6848    85.151426  0.010239326   0.12785499   0.20740526  -0.07955027 
 4973000    66.359735    85.427252  0.010239326   0.12826915   0.19750876 -0.069239613 
 4974000    67.386221     85.25597  0.010239326   0.12801197   0.20056392 -0.072551957 
 4975000    67.279806    85.317573  0.010239326   0.12810446    0.2002472 -0.072142735 
 4976000     67.20333     85.33076  0.010239326   0.12812426   0.20001958 -0.071895315 
 4977000    65.987442    85.316584  0.010239326   0.12810298   0.19640069 -0.068297711 
 4978000    66.993615    85.291859  0.010239326   0.12806585    0.1993954 -0.071329543 
 4979000    66.541883    85.287696  0.010239326    0.1280596   0.19805089 -0.069991289 
 4980000    67.231039    85.288384  0.010239326   0.12806064   0.20010205 -0.072041416 
 4981000    66.746759    85.253555  0.010239326   0.12800834   0.19866067  -0.07065233 
 4982000    67.038582    85.252468  0.010239326   0.12800671   0.19952924 -0.071522527 
 4983000    66.758235    85.177966  0.010239326   0.12789484   0.19869483 -0.070799985 
 4984000    66.206812    85.267608  0.010239326   0.12802944   0.19705361 -0.069024167 
 4985000    67.576495    85.136959  0.010239326   0.12783327   0.20113024 -0.073296974 
 4986000    67.225741    85.049955  0.010239326   0.12770264   0.20008628 -0.072383648 
 4987000    66.594582    85.095331  0.010239326   0.12777077   0.19820774 -0.070436975 
 4988000     66.15506    85.256309  0.010239326   0.12801248   0.19689958 -0.068887103 
 4989000    67.608441      85.2013  0.010239326   0.12792988   0.20122533 -0.073295446 
 4990000    66.101823    85.235749  0.010239326   0.12798161   0.19674113 -0.068759523 
 4991000    66.289292    85.224194  0.010239326   0.12796425    0.1972991 -0.069334843 
 4992000    68.242182    85.135646  0.010239326    0.1278313   0.20311155  -0.07528025 
 4993000     66.37449    85.171797  0.010239326   0.12788558   0.19755267 -0.069667094 
 4994000    67.588422    85.035192  0.010239326   0.12768047   0.20116574 -0.073485274 
 4995000     65.83457     85.16766  0.010239326   0.12787937   0.19594569 -0.068066324 
 4996000    65.803699    85.283325  0.010239326   0.12805304   0.19585381  -0.06780077 
 4997000     66.61733    85.014469  0.010239326   0.12764935   0.19827545 -0.070626096 
 4998000    68.637444    84.937748  0.010239326   0.12753416   0.20428798 -0.076753827 
 4999000    66.754807    85.259167  0.010239326   0.12801677   0.19868463 -0.070667858 
 5000000    67.611004    85.100758  0.010239326   0.12777892   0.20123296  -0.07345404 
 5001000    67.881335     85.09592  0.010239326   0.12777165   0.20203755 -0.074265899 
 5002000    68.002431    85.135713  0.010239326    0.1278314   0.20239797 -0.074566571 
 5003000    67.963396    85.187656  0.010239326   0.12790939   0.20228179 -0.074372398 
 5004000    67.627909    85.184434  0.010239326   0.12790456   0.20128327 -0.073378713 
 5005000    67.707438    85.033263  0.010239326   0.12767757   0.20151997 -0.073842401 
 5006000    68.315121    85.075853  0.010239326   0.12774152   0.20332864  -0.07558712 
 5007000    68.500368    85.156157  0.010239326    0.1278621      0.20388 -0.076017902 
 5008000    68.812287    84.993978  0.010239326   0.12761859   0.20480837  -0.07718979 
 5009000    68.685164    85.017916  0.010239326   0.12765453   0.20443001 -0.076775486 
 5010000    68.061467    85.012812  0.010239326   0.12764687   0.20257368 -0.074926819 
 5011000    69.921432    84.917116  0.010239326   0.12750318   0.20810956 -0.080606384 
 5012000    67.930093    85.075031  0.010239326   0.12774029   0.20218267 -0.074442382 
 5013000    69.209904    84.819047  0.010239326   0.12735593   0.20599181 -0.078635889 
 5014000    70.490994    84.667073  0.010239326   0.12712774   0.20980477 -0.082677031 
 5015000     69.03873    84.865147  0.010239326   0.12742515   0.20548234 -0.078057198 
 5016000     68.71497     84.85458  0.010239326   0.12740928   0.20451873 -0.077109448 
 5017000    68.419877    84.920467  0.010239326   0.12750821   0.20364043 -0.076132223 
 5018000    67.926879    85.162298  0.010239326   0.12787132    0.2021731 -0.074301785 
 5019000    68.256563    85.107992  0.010239326   0.12778978   0.20315435 -0.075364575 
 5020000      69.2889    85.009751  0.010239326   0.12764227   0.20622693 -0.078584663 
Loop time of 207.982 on 1 procs for 5000000 steps with 666 atoms

Performance: 20771.043 ns/day, 0.001 hours/ns, 24040.559 timesteps/s
99.9% CPU use with 1 MPI tasks x no OpenMP threads

MPI task timing breakdown:
Section |  min time  |  avg time  |  max time  |%varavg| %total
---------------------------------------------------------------
Pair    | 81.379     | 81.379     | 81.379     |   0.0 | 39.13
Neigh   | 41.287     | 41.287     | 41.287     |   0.0 | 19.85
Comm    | 12.694     | 12.694     | 12.694     |   0.0 |  6.10
Output  | 0.25078    | 0.25078    | 0.25078    |   0.0 |  0.12
Modify  | 55.726     | 55.726     | 55.726     |   0.0 | 26.79
Other   |            | 16.65      |            |       |  8.00

Nlocal:    666 ave 666 max 666 min
Histogram: 1 0 0 0 0 0 0 0 0 0
Nghost:    281 ave 281 max 281 min
Histogram: 1 0 0 0 0 0 0 0 0 0
Neighs:    1077 ave 1077 max 1077 min
Histogram: 1 0 0 0 0 0 0 0 0 0

Total # of neighbors = 1077
Ave neighs/atom = 1.61712
Neighbor list builds = 230337
Dangerous builds = 0
unfix 		rlx


Total wall time: 0:03:28
